/*--------------------------------*- C++ -*----------------------------------*\
  =========                 |
  \\      /  F ield         | OpenFOAM: The Open Source CFD Toolbox
   \\    /   O peration     | Website:  https://openfoam.org
    \\  /    A nd           | Version:  9
     \\/     M anipulation  |
\*---------------------------------------------------------------------------*/
FoamFile
{
    format      ascii;
    class       volScalarField;
    location    "0.003";
    object      alphat;
}
// * * * * * * * * * * * * * * * * * * * * * * * * * * * * * * * * * * * * * //

dimensions      [1 -1 -1 0 0 0 0];

internalField   nonuniform List<scalar> 
36400
(
7.99902e-06
7.9647e-06
7.93302e-06
7.90431e-06
7.87869e-06
7.85595e-06
7.8356e-06
7.81703e-06
7.79958e-06
7.78274e-06
7.76614e-06
7.74959e-06
7.73306e-06
7.71668e-06
7.70071e-06
7.68546e-06
7.6712e-06
7.65809e-06
7.6461e-06
7.63498e-06
7.62423e-06
7.61316e-06
7.60131e-06
7.58891e-06
7.57681e-06
7.56593e-06
7.55684e-06
7.5496e-06
7.54379e-06
7.53875e-06
7.53424e-06
7.53051e-06
7.52781e-06
7.52612e-06
7.52526e-06
7.52493e-06
7.52468e-06
7.52383e-06
7.52137e-06
7.51648e-06
7.50921e-06
7.50174e-06
7.49573e-06
7.49161e-06
7.49e-06
7.49047e-06
7.49114e-06
7.49159e-06
7.49223e-06
7.49189e-06
7.49193e-06
7.49262e-06
7.49237e-06
7.49141e-06
7.49011e-06
7.48871e-06
7.48787e-06
7.48756e-06
7.48452e-06
7.47177e-06
7.99895e-06
7.96438e-06
7.93222e-06
7.90275e-06
7.87614e-06
7.85232e-06
7.831e-06
7.81175e-06
7.79407e-06
7.77751e-06
7.76172e-06
7.74647e-06
7.73167e-06
7.71734e-06
7.70364e-06
7.69076e-06
7.67889e-06
7.66815e-06
7.65852e-06
7.64984e-06
7.64178e-06
7.63391e-06
7.62585e-06
7.61759e-06
7.6095e-06
7.60207e-06
7.59566e-06
7.59041e-06
7.58619e-06
7.58274e-06
7.58e-06
7.57817e-06
7.57742e-06
7.57766e-06
7.57864e-06
7.57999e-06
7.58122e-06
7.58184e-06
7.58125e-06
7.57906e-06
7.57526e-06
7.57079e-06
7.56648e-06
7.56263e-06
7.55967e-06
7.55756e-06
7.55553e-06
7.55338e-06
7.55142e-06
7.54937e-06
7.54805e-06
7.54757e-06
7.54684e-06
7.54542e-06
7.54316e-06
7.54021e-06
7.53739e-06
7.53524e-06
7.53242e-06
7.52615e-06
7.99886e-06
7.96397e-06
7.93115e-06
7.90059e-06
7.87242e-06
7.84672e-06
7.8234e-06
7.8023e-06
7.7832e-06
7.76585e-06
7.75006e-06
7.73567e-06
7.72259e-06
7.71077e-06
7.7002e-06
7.69092e-06
7.6829e-06
7.6761e-06
7.67038e-06
7.66555e-06
7.66136e-06
7.65752e-06
7.65378e-06
7.65002e-06
7.64631e-06
7.64279e-06
7.6396e-06
7.63685e-06
7.63457e-06
7.63276e-06
7.63147e-06
7.63083e-06
7.63088e-06
7.63157e-06
7.63271e-06
7.63402e-06
7.63523e-06
7.63605e-06
7.63629e-06
7.63584e-06
7.63471e-06
7.63318e-06
7.6315e-06
7.62981e-06
7.62823e-06
7.6268e-06
7.62539e-06
7.624e-06
7.62276e-06
7.62167e-06
7.62093e-06
7.62053e-06
7.62021e-06
7.61977e-06
7.61911e-06
7.61825e-06
7.61737e-06
7.61662e-06
7.61562e-06
7.61255e-06
7.99879e-06
7.96366e-06
7.93033e-06
7.89886e-06
7.86933e-06
7.84182e-06
7.81637e-06
7.79301e-06
7.77173e-06
7.75254e-06
7.73545e-06
7.72049e-06
7.70767e-06
7.697e-06
7.68842e-06
7.68183e-06
7.67703e-06
7.67376e-06
7.67169e-06
7.67046e-06
7.66973e-06
7.6692e-06
7.66863e-06
7.6679e-06
7.66697e-06
7.66588e-06
7.66469e-06
7.66348e-06
7.66231e-06
7.66127e-06
7.66041e-06
7.6598e-06
7.65947e-06
7.6594e-06
7.65952e-06
7.65975e-06
7.65998e-06
7.66014e-06
7.66018e-06
7.66009e-06
7.65987e-06
7.65957e-06
7.65924e-06
7.6589e-06
7.65856e-06
7.65823e-06
7.6579e-06
7.65757e-06
7.65726e-06
7.65698e-06
7.65674e-06
7.65655e-06
7.65637e-06
7.65617e-06
7.65595e-06
7.65572e-06
7.65549e-06
7.65527e-06
7.65499e-06
7.65385e-06
7.99875e-06
7.9635e-06
7.92988e-06
7.89788e-06
7.86752e-06
7.83883e-06
7.81188e-06
7.78677e-06
7.7636e-06
7.74254e-06
7.72375e-06
7.70742e-06
7.69371e-06
7.68271e-06
7.67443e-06
7.66873e-06
7.66534e-06
7.66388e-06
7.66385e-06
7.66474e-06
7.66607e-06
7.66745e-06
7.6686e-06
7.66937e-06
7.66971e-06
7.66965e-06
7.66928e-06
7.66869e-06
7.66797e-06
7.66721e-06
7.66645e-06
7.66575e-06
7.66514e-06
7.66462e-06
7.66418e-06
7.66383e-06
7.66354e-06
7.66332e-06
7.66315e-06
7.66304e-06
7.66299e-06
7.66298e-06
7.66301e-06
7.66306e-06
7.66311e-06
7.66316e-06
7.66318e-06
7.66316e-06
7.6631e-06
7.66299e-06
7.66284e-06
7.66265e-06
7.66243e-06
7.66218e-06
7.66191e-06
7.66165e-06
7.66139e-06
7.66115e-06
7.66093e-06
7.66055e-06
7.99874e-06
7.96343e-06
7.92968e-06
7.89745e-06
7.86669e-06
7.83741e-06
7.80968e-06
7.78357e-06
7.75925e-06
7.73693e-06
7.71686e-06
7.69931e-06
7.68453e-06
7.67269e-06
7.66388e-06
7.65797e-06
7.65471e-06
7.65365e-06
7.65425e-06
7.6559e-06
7.65804e-06
7.6602e-06
7.66205e-06
7.66342e-06
7.66426e-06
7.6646e-06
7.66454e-06
7.66421e-06
7.6637e-06
7.6631e-06
7.66248e-06
7.66187e-06
7.66131e-06
7.66079e-06
7.66033e-06
7.65994e-06
7.65962e-06
7.65937e-06
7.6592e-06
7.6591e-06
7.65907e-06
7.65909e-06
7.65915e-06
7.65924e-06
7.65932e-06
7.65939e-06
7.65944e-06
7.65944e-06
7.65939e-06
7.6593e-06
7.65917e-06
7.659e-06
7.65881e-06
7.65859e-06
7.65837e-06
7.65815e-06
7.65793e-06
7.65774e-06
7.65758e-06
7.65746e-06
7.99873e-06
7.9634e-06
7.92961e-06
7.89729e-06
7.86637e-06
7.83686e-06
7.80878e-06
7.78222e-06
7.75735e-06
7.73439e-06
7.71361e-06
7.69532e-06
7.6798e-06
7.6673e-06
7.65791e-06
7.65157e-06
7.64801e-06
7.64681e-06
7.64739e-06
7.64913e-06
7.65143e-06
7.65379e-06
7.65584e-06
7.6574e-06
7.6584e-06
7.65889e-06
7.65896e-06
7.65874e-06
7.65835e-06
7.65787e-06
7.65737e-06
7.6569e-06
7.65646e-06
7.65608e-06
7.65575e-06
7.65547e-06
7.65525e-06
7.65508e-06
7.65496e-06
7.65489e-06
7.65487e-06
7.65488e-06
7.65492e-06
7.65497e-06
7.65502e-06
7.65505e-06
7.65507e-06
7.65506e-06
7.65503e-06
7.65496e-06
7.65487e-06
7.65477e-06
7.65465e-06
7.65452e-06
7.65439e-06
7.65426e-06
7.65414e-06
7.65403e-06
7.65396e-06
7.65394e-06
7.99873e-06
7.96339e-06
7.92959e-06
7.89723e-06
7.86627e-06
7.83667e-06
7.80846e-06
7.78174e-06
7.75664e-06
7.7334e-06
7.7123e-06
7.69365e-06
7.67777e-06
7.66489e-06
7.65515e-06
7.64849e-06
7.64467e-06
7.64326e-06
7.6437e-06
7.64535e-06
7.64761e-06
7.64996e-06
7.65204e-06
7.65363e-06
7.65467e-06
7.6552e-06
7.65532e-06
7.65515e-06
7.65482e-06
7.65441e-06
7.65399e-06
7.6536e-06
7.65325e-06
7.65296e-06
7.65273e-06
7.65254e-06
7.6524e-06
7.65229e-06
7.65222e-06
7.65218e-06
7.65216e-06
7.65216e-06
7.65218e-06
7.6522e-06
7.65222e-06
7.65223e-06
7.65224e-06
7.65223e-06
7.65221e-06
7.65217e-06
7.65213e-06
7.65208e-06
7.65202e-06
7.65196e-06
7.6519e-06
7.65184e-06
7.6518e-06
7.65175e-06
7.65173e-06
7.65176e-06
7.99873e-06
7.96339e-06
7.92958e-06
7.89722e-06
7.86623e-06
7.83661e-06
7.80836e-06
7.78158e-06
7.7564e-06
7.73306e-06
7.71183e-06
7.69304e-06
7.677e-06
7.66395e-06
7.65404e-06
7.64722e-06
7.64325e-06
7.64172e-06
7.64205e-06
7.64362e-06
7.64582e-06
7.64813e-06
7.65019e-06
7.65177e-06
7.65281e-06
7.65335e-06
7.65349e-06
7.65335e-06
7.65304e-06
7.65266e-06
7.65227e-06
7.65192e-06
7.65162e-06
7.65138e-06
7.65119e-06
7.65105e-06
7.65095e-06
7.65088e-06
7.65083e-06
7.6508e-06
7.65078e-06
7.65078e-06
7.65078e-06
7.65079e-06
7.6508e-06
7.6508e-06
7.6508e-06
7.6508e-06
7.65079e-06
7.65078e-06
7.65076e-06
7.65074e-06
7.65071e-06
7.65069e-06
7.65067e-06
7.65065e-06
7.65064e-06
7.65063e-06
7.65064e-06
7.65069e-06
7.99873e-06
7.96339e-06
7.92958e-06
7.89721e-06
7.86623e-06
7.83659e-06
7.80833e-06
7.78153e-06
7.75633e-06
7.73295e-06
7.71168e-06
7.69284e-06
7.67674e-06
7.66363e-06
7.65365e-06
7.64676e-06
7.64272e-06
7.64113e-06
7.64141e-06
7.64294e-06
7.6451e-06
7.64739e-06
7.64942e-06
7.651e-06
7.65203e-06
7.65258e-06
7.65272e-06
7.65258e-06
7.65228e-06
7.65192e-06
7.65154e-06
7.65121e-06
7.65093e-06
7.65071e-06
7.65054e-06
7.65041e-06
7.65033e-06
7.65027e-06
7.65023e-06
7.6502e-06
7.65019e-06
7.65018e-06
7.65018e-06
7.65018e-06
7.65019e-06
7.65019e-06
7.65019e-06
7.65019e-06
7.65018e-06
7.65018e-06
7.65017e-06
7.65017e-06
7.65016e-06
7.65015e-06
7.65015e-06
7.65015e-06
7.65015e-06
7.65016e-06
7.65019e-06
7.65026e-06
7.99873e-06
7.96339e-06
7.92958e-06
7.89721e-06
7.86622e-06
7.83659e-06
7.80832e-06
7.78151e-06
7.75631e-06
7.73292e-06
7.71164e-06
7.69278e-06
7.67666e-06
7.66352e-06
7.65352e-06
7.6466e-06
7.64255e-06
7.64093e-06
7.64119e-06
7.64269e-06
7.64484e-06
7.64712e-06
7.64914e-06
7.65071e-06
7.65174e-06
7.65229e-06
7.65243e-06
7.65229e-06
7.652e-06
7.65164e-06
7.65127e-06
7.65094e-06
7.65067e-06
7.65045e-06
7.65029e-06
7.65017e-06
7.65009e-06
7.65004e-06
7.65e-06
7.64998e-06
7.64997e-06
7.64996e-06
7.64996e-06
7.64996e-06
7.64996e-06
7.64996e-06
7.64996e-06
7.64996e-06
7.64995e-06
7.64995e-06
7.64995e-06
7.64995e-06
7.64995e-06
7.64995e-06
7.64995e-06
7.64996e-06
7.64997e-06
7.65e-06
7.65004e-06
7.65013e-06
7.99873e-06
7.96339e-06
7.92958e-06
7.89721e-06
7.86622e-06
7.83659e-06
7.80832e-06
7.78151e-06
7.7563e-06
7.73291e-06
7.71162e-06
7.69276e-06
7.67663e-06
7.66349e-06
7.65348e-06
7.64656e-06
7.64249e-06
7.64086e-06
7.64111e-06
7.64262e-06
7.64476e-06
7.64703e-06
7.64905e-06
7.65061e-06
7.65165e-06
7.65219e-06
7.65233e-06
7.6522e-06
7.6519e-06
7.65154e-06
7.65118e-06
7.65085e-06
7.65058e-06
7.65036e-06
7.6502e-06
7.65009e-06
7.65001e-06
7.64996e-06
7.64993e-06
7.6499e-06
7.64989e-06
7.64988e-06
7.64988e-06
7.64988e-06
7.64988e-06
7.64988e-06
7.64988e-06
7.64988e-06
7.64988e-06
7.64988e-06
7.64988e-06
7.64988e-06
7.64988e-06
7.64989e-06
7.64989e-06
7.6499e-06
7.64992e-06
7.64996e-06
7.65003e-06
7.65017e-06
7.99873e-06
7.96339e-06
7.92958e-06
7.89721e-06
7.86622e-06
7.83659e-06
7.80832e-06
7.78151e-06
7.7563e-06
7.73291e-06
7.71162e-06
7.69276e-06
7.67662e-06
7.66348e-06
7.65347e-06
7.64654e-06
7.64247e-06
7.64084e-06
7.64109e-06
7.64259e-06
7.64473e-06
7.647e-06
7.64902e-06
7.65058e-06
7.65162e-06
7.65216e-06
7.6523e-06
7.65217e-06
7.65187e-06
7.65151e-06
7.65115e-06
7.65082e-06
7.65055e-06
7.65034e-06
7.65018e-06
7.65007e-06
7.64999e-06
7.64994e-06
7.6499e-06
7.64988e-06
7.64987e-06
7.64986e-06
7.64986e-06
7.64985e-06
7.64985e-06
7.64985e-06
7.64985e-06
7.64985e-06
7.64985e-06
7.64986e-06
7.64986e-06
7.64986e-06
7.64986e-06
7.64987e-06
7.64988e-06
7.64989e-06
7.64992e-06
7.64997e-06
7.65009e-06
7.65032e-06
7.99873e-06
7.96339e-06
7.92958e-06
7.89721e-06
7.86622e-06
7.83659e-06
7.80832e-06
7.78151e-06
7.7563e-06
7.73291e-06
7.71162e-06
7.69275e-06
7.67662e-06
7.66348e-06
7.65347e-06
7.64654e-06
7.64247e-06
7.64084e-06
7.64109e-06
7.64259e-06
7.64473e-06
7.64699e-06
7.64901e-06
7.65058e-06
7.65161e-06
7.65215e-06
7.65229e-06
7.65216e-06
7.65187e-06
7.6515e-06
7.65114e-06
7.65081e-06
7.65054e-06
7.65033e-06
7.65017e-06
7.65006e-06
7.64998e-06
7.64993e-06
7.6499e-06
7.64987e-06
7.64986e-06
7.64985e-06
7.64985e-06
7.64985e-06
7.64985e-06
7.64985e-06
7.64985e-06
7.64985e-06
7.64985e-06
7.64985e-06
7.64985e-06
7.64986e-06
7.64986e-06
7.64987e-06
7.64988e-06
7.6499e-06
7.64995e-06
7.65004e-06
7.65022e-06
7.65059e-06
7.99873e-06
7.96339e-06
7.92958e-06
7.89721e-06
7.86622e-06
7.83659e-06
7.80832e-06
7.78151e-06
7.7563e-06
7.73291e-06
7.71162e-06
7.69275e-06
7.67662e-06
7.66348e-06
7.65347e-06
7.64654e-06
7.64247e-06
7.64084e-06
7.64109e-06
7.64258e-06
7.64472e-06
7.64699e-06
7.64901e-06
7.65057e-06
7.65161e-06
7.65215e-06
7.65229e-06
7.65216e-06
7.65186e-06
7.6515e-06
7.65114e-06
7.65081e-06
7.65054e-06
7.65033e-06
7.65017e-06
7.65006e-06
7.64998e-06
7.64993e-06
7.64989e-06
7.64987e-06
7.64986e-06
7.64985e-06
7.64985e-06
7.64985e-06
7.64985e-06
7.64985e-06
7.64985e-06
7.64985e-06
7.64985e-06
7.64985e-06
7.64985e-06
7.64986e-06
7.64987e-06
7.64987e-06
7.64989e-06
7.64993e-06
7.65e-06
7.65014e-06
7.65043e-06
7.65103e-06
7.99873e-06
7.96339e-06
7.92958e-06
7.89721e-06
7.86622e-06
7.83659e-06
7.80832e-06
7.78151e-06
7.7563e-06
7.73291e-06
7.71162e-06
7.69275e-06
7.67662e-06
7.66348e-06
7.65347e-06
7.64654e-06
7.64247e-06
7.64084e-06
7.64109e-06
7.64258e-06
7.64472e-06
7.64699e-06
7.64901e-06
7.65057e-06
7.65161e-06
7.65215e-06
7.65229e-06
7.65216e-06
7.65186e-06
7.6515e-06
7.65114e-06
7.65081e-06
7.65054e-06
7.65033e-06
7.65017e-06
7.65006e-06
7.64998e-06
7.64993e-06
7.64989e-06
7.64987e-06
7.64986e-06
7.64985e-06
7.64985e-06
7.64985e-06
7.64985e-06
7.64985e-06
7.64985e-06
7.64985e-06
7.64985e-06
7.64985e-06
7.64986e-06
7.64987e-06
7.64988e-06
7.64989e-06
7.64992e-06
7.64998e-06
7.65009e-06
7.65032e-06
7.65079e-06
7.65173e-06
7.99873e-06
7.96339e-06
7.92958e-06
7.89721e-06
7.86622e-06
7.83659e-06
7.80832e-06
7.78151e-06
7.7563e-06
7.73291e-06
7.71162e-06
7.69275e-06
7.67662e-06
7.66348e-06
7.65347e-06
7.64654e-06
7.64247e-06
7.64084e-06
7.64109e-06
7.64258e-06
7.64472e-06
7.64699e-06
7.64901e-06
7.65057e-06
7.65161e-06
7.65215e-06
7.65229e-06
7.65216e-06
7.65186e-06
7.6515e-06
7.65114e-06
7.65081e-06
7.65054e-06
7.65033e-06
7.65017e-06
7.65006e-06
7.64998e-06
7.64993e-06
7.64989e-06
7.64987e-06
7.64986e-06
7.64985e-06
7.64985e-06
7.64985e-06
7.64985e-06
7.64985e-06
7.64985e-06
7.64985e-06
7.64985e-06
7.64986e-06
7.64987e-06
7.64987e-06
7.64989e-06
7.64991e-06
7.64995e-06
7.65005e-06
7.65023e-06
7.6506e-06
7.65134e-06
7.65285e-06
7.99873e-06
7.96339e-06
7.92958e-06
7.89721e-06
7.86622e-06
7.83659e-06
7.80832e-06
7.78151e-06
7.7563e-06
7.73291e-06
7.71162e-06
7.69275e-06
7.67662e-06
7.66348e-06
7.65347e-06
7.64654e-06
7.64247e-06
7.64084e-06
7.64109e-06
7.64258e-06
7.64472e-06
7.64699e-06
7.64901e-06
7.65057e-06
7.65161e-06
7.65215e-06
7.65229e-06
7.65216e-06
7.65186e-06
7.6515e-06
7.65114e-06
7.65081e-06
7.65054e-06
7.65033e-06
7.65017e-06
7.65006e-06
7.64998e-06
7.64993e-06
7.64989e-06
7.64987e-06
7.64986e-06
7.64985e-06
7.64985e-06
7.64985e-06
7.64985e-06
7.64985e-06
7.64985e-06
7.64985e-06
7.64986e-06
7.64987e-06
7.64988e-06
7.64989e-06
7.64991e-06
7.64994e-06
7.65001e-06
7.65015e-06
7.65044e-06
7.65102e-06
7.65218e-06
7.65452e-06
7.99873e-06
7.96339e-06
7.92958e-06
7.89721e-06
7.86622e-06
7.83659e-06
7.80832e-06
7.78151e-06
7.7563e-06
7.73291e-06
7.71162e-06
7.69275e-06
7.67662e-06
7.66348e-06
7.65347e-06
7.64654e-06
7.64247e-06
7.64084e-06
7.64109e-06
7.64258e-06
7.64472e-06
7.64699e-06
7.64901e-06
7.65057e-06
7.65161e-06
7.65215e-06
7.65229e-06
7.65216e-06
7.65186e-06
7.6515e-06
7.65114e-06
7.65081e-06
7.65054e-06
7.65033e-06
7.65017e-06
7.65006e-06
7.64998e-06
7.64993e-06
7.64989e-06
7.64987e-06
7.64986e-06
7.64985e-06
7.64985e-06
7.64985e-06
7.64985e-06
7.64985e-06
7.64985e-06
7.64986e-06
7.64986e-06
7.64987e-06
7.64989e-06
7.64991e-06
7.64994e-06
7.64999e-06
7.6501e-06
7.65031e-06
7.65075e-06
7.65163e-06
7.6534e-06
7.65697e-06
7.99873e-06
7.96339e-06
7.92958e-06
7.89721e-06
7.86622e-06
7.83659e-06
7.80832e-06
7.78151e-06
7.7563e-06
7.73291e-06
7.71162e-06
7.69275e-06
7.67662e-06
7.66348e-06
7.65347e-06
7.64654e-06
7.64247e-06
7.64084e-06
7.64109e-06
7.64258e-06
7.64472e-06
7.64699e-06
7.64901e-06
7.65057e-06
7.65161e-06
7.65215e-06
7.65229e-06
7.65216e-06
7.65186e-06
7.6515e-06
7.65114e-06
7.65081e-06
7.65054e-06
7.65033e-06
7.65017e-06
7.65006e-06
7.64998e-06
7.64993e-06
7.64989e-06
7.64987e-06
7.64986e-06
7.64985e-06
7.64985e-06
7.64985e-06
7.64985e-06
7.64985e-06
7.64986e-06
7.64986e-06
7.64987e-06
7.64988e-06
7.6499e-06
7.64993e-06
7.64997e-06
7.65005e-06
7.6502e-06
7.65052e-06
7.65116e-06
7.65247e-06
7.6551e-06
7.66038e-06
7.99873e-06
7.96339e-06
7.92958e-06
7.89721e-06
7.86622e-06
7.83659e-06
7.80832e-06
7.78151e-06
7.7563e-06
7.73291e-06
7.71162e-06
7.69275e-06
7.67662e-06
7.66348e-06
7.65347e-06
7.64654e-06
7.64247e-06
7.64084e-06
7.64109e-06
7.64258e-06
7.64472e-06
7.64699e-06
7.64901e-06
7.65057e-06
7.65161e-06
7.65215e-06
7.65229e-06
7.65216e-06
7.65186e-06
7.6515e-06
7.65114e-06
7.65081e-06
7.65054e-06
7.65033e-06
7.65017e-06
7.65006e-06
7.64998e-06
7.64993e-06
7.64989e-06
7.64987e-06
7.64986e-06
7.64985e-06
7.64985e-06
7.64985e-06
7.64985e-06
7.64986e-06
7.64986e-06
7.64987e-06
7.64988e-06
7.6499e-06
7.64992e-06
7.64996e-06
7.65002e-06
7.65014e-06
7.65036e-06
7.65082e-06
7.65174e-06
7.65363e-06
7.65744e-06
7.66506e-06
7.99873e-06
7.96339e-06
7.92958e-06
7.89721e-06
7.86622e-06
7.83659e-06
7.80832e-06
7.78151e-06
7.7563e-06
7.73291e-06
7.71162e-06
7.69275e-06
7.67662e-06
7.66348e-06
7.65347e-06
7.64654e-06
7.64247e-06
7.64084e-06
7.64109e-06
7.64258e-06
7.64472e-06
7.64699e-06
7.64901e-06
7.65057e-06
7.65161e-06
7.65215e-06
7.65229e-06
7.65216e-06
7.65186e-06
7.6515e-06
7.65114e-06
7.65081e-06
7.65054e-06
7.65033e-06
7.65017e-06
7.65006e-06
7.64998e-06
7.64993e-06
7.64989e-06
7.64987e-06
7.64986e-06
7.64985e-06
7.64985e-06
7.64985e-06
7.64985e-06
7.64986e-06
7.64987e-06
7.64988e-06
7.64989e-06
7.64991e-06
7.64995e-06
7.65e-06
7.65007e-06
7.65023e-06
7.65056e-06
7.65121e-06
7.65254e-06
7.65523e-06
7.66066e-06
7.67167e-06
7.99873e-06
7.96339e-06
7.92958e-06
7.89721e-06
7.86622e-06
7.83659e-06
7.80832e-06
7.78151e-06
7.7563e-06
7.73291e-06
7.71162e-06
7.69275e-06
7.67662e-06
7.66348e-06
7.65347e-06
7.64654e-06
7.64247e-06
7.64084e-06
7.64109e-06
7.64258e-06
7.64472e-06
7.64699e-06
7.64901e-06
7.65057e-06
7.65161e-06
7.65215e-06
7.65229e-06
7.65216e-06
7.65186e-06
7.6515e-06
7.65114e-06
7.65081e-06
7.65054e-06
7.65033e-06
7.65017e-06
7.65006e-06
7.64998e-06
7.64993e-06
7.64989e-06
7.64987e-06
7.64986e-06
7.64986e-06
7.64985e-06
7.64985e-06
7.64986e-06
7.64986e-06
7.64987e-06
7.64988e-06
7.6499e-06
7.64993e-06
7.64997e-06
7.65002e-06
7.65013e-06
7.65035e-06
7.6508e-06
7.65171e-06
7.65355e-06
7.65727e-06
7.66482e-06
7.68013e-06
7.99873e-06
7.96339e-06
7.92958e-06
7.89721e-06
7.86622e-06
7.83659e-06
7.80832e-06
7.78151e-06
7.7563e-06
7.73291e-06
7.71162e-06
7.69275e-06
7.67662e-06
7.66348e-06
7.65347e-06
7.64654e-06
7.64247e-06
7.64084e-06
7.64109e-06
7.64258e-06
7.64472e-06
7.64699e-06
7.64901e-06
7.65057e-06
7.65161e-06
7.65215e-06
7.65229e-06
7.65216e-06
7.65186e-06
7.6515e-06
7.65114e-06
7.65081e-06
7.65054e-06
7.65033e-06
7.65017e-06
7.65006e-06
7.64998e-06
7.64993e-06
7.64989e-06
7.64987e-06
7.64986e-06
7.64986e-06
7.64985e-06
7.64986e-06
7.64986e-06
7.64987e-06
7.64988e-06
7.64989e-06
7.64992e-06
7.64995e-06
7.65e-06
7.65007e-06
7.65022e-06
7.65052e-06
7.65113e-06
7.65235e-06
7.65482e-06
7.65985e-06
7.67011e-06
7.69085e-06
7.99873e-06
7.96339e-06
7.92958e-06
7.89721e-06
7.86622e-06
7.83659e-06
7.80832e-06
7.78151e-06
7.7563e-06
7.73291e-06
7.71162e-06
7.69275e-06
7.67662e-06
7.66348e-06
7.65347e-06
7.64654e-06
7.64247e-06
7.64084e-06
7.64109e-06
7.64258e-06
7.64472e-06
7.64699e-06
7.64901e-06
7.65057e-06
7.65161e-06
7.65215e-06
7.65229e-06
7.65216e-06
7.65186e-06
7.6515e-06
7.65114e-06
7.65081e-06
7.65054e-06
7.65033e-06
7.65017e-06
7.65006e-06
7.64998e-06
7.64993e-06
7.64989e-06
7.64987e-06
7.64986e-06
7.64986e-06
7.64986e-06
7.64986e-06
7.64986e-06
7.64987e-06
7.64988e-06
7.6499e-06
7.64993e-06
7.64997e-06
7.65002e-06
7.65012e-06
7.65031e-06
7.6507e-06
7.65149e-06
7.65312e-06
7.65643e-06
7.66314e-06
7.6767e-06
7.70431e-06
7.99873e-06
7.96339e-06
7.92958e-06
7.89721e-06
7.86622e-06
7.83659e-06
7.80832e-06
7.78151e-06
7.7563e-06
7.73291e-06
7.71162e-06
7.69275e-06
7.67662e-06
7.66348e-06
7.65347e-06
7.64654e-06
7.64247e-06
7.64084e-06
7.64109e-06
7.64258e-06
7.64472e-06
7.64699e-06
7.64901e-06
7.65057e-06
7.65161e-06
7.65215e-06
7.65229e-06
7.65216e-06
7.65186e-06
7.6515e-06
7.65114e-06
7.65081e-06
7.65054e-06
7.65033e-06
7.65017e-06
7.65006e-06
7.64998e-06
7.64993e-06
7.64989e-06
7.64987e-06
7.64986e-06
7.64986e-06
7.64986e-06
7.64986e-06
7.64987e-06
7.64988e-06
7.64989e-06
7.64991e-06
7.64994e-06
7.64999e-06
7.65006e-06
7.65018e-06
7.65044e-06
7.65094e-06
7.65196e-06
7.65405e-06
7.65834e-06
7.66703e-06
7.68462e-06
7.72058e-06
7.99873e-06
7.96339e-06
7.92958e-06
7.89721e-06
7.86622e-06
7.83659e-06
7.80832e-06
7.78151e-06
7.7563e-06
7.73291e-06
7.71162e-06
7.69275e-06
7.67662e-06
7.66348e-06
7.65347e-06
7.64654e-06
7.64247e-06
7.64084e-06
7.64109e-06
7.64258e-06
7.64472e-06
7.64699e-06
7.64901e-06
7.65057e-06
7.65161e-06
7.65215e-06
7.65229e-06
7.65216e-06
7.65186e-06
7.6515e-06
7.65114e-06
7.65081e-06
7.65054e-06
7.65033e-06
7.65017e-06
7.65006e-06
7.64998e-06
7.64993e-06
7.64989e-06
7.64988e-06
7.64986e-06
7.64986e-06
7.64986e-06
7.64986e-06
7.64987e-06
7.64988e-06
7.6499e-06
7.64992e-06
7.64996e-06
7.65001e-06
7.65009e-06
7.65025e-06
7.65057e-06
7.65121e-06
7.6525e-06
7.65513e-06
7.66046e-06
7.67138e-06
7.69374e-06
7.73961e-06
7.99873e-06
7.96339e-06
7.92958e-06
7.89721e-06
7.86622e-06
7.83659e-06
7.80832e-06
7.78151e-06
7.7563e-06
7.73291e-06
7.71162e-06
7.69275e-06
7.67662e-06
7.66348e-06
7.65347e-06
7.64654e-06
7.64247e-06
7.64084e-06
7.64109e-06
7.64258e-06
7.64472e-06
7.64699e-06
7.64901e-06
7.65057e-06
7.65161e-06
7.65215e-06
7.65229e-06
7.65216e-06
7.65186e-06
7.6515e-06
7.65114e-06
7.65081e-06
7.65054e-06
7.65033e-06
7.65017e-06
7.65006e-06
7.64998e-06
7.64993e-06
7.6499e-06
7.64988e-06
7.64986e-06
7.64986e-06
7.64986e-06
7.64986e-06
7.64987e-06
7.64988e-06
7.6499e-06
7.64993e-06
7.64997e-06
7.65003e-06
7.65013e-06
7.65032e-06
7.6507e-06
7.65149e-06
7.65308e-06
7.65631e-06
7.66289e-06
7.67625e-06
7.70358e-06
7.76061e-06
7.99873e-06
7.96339e-06
7.92958e-06
7.89721e-06
7.86622e-06
7.83659e-06
7.80832e-06
7.78151e-06
7.7563e-06
7.73291e-06
7.71162e-06
7.69275e-06
7.67662e-06
7.66348e-06
7.65347e-06
7.64654e-06
7.64247e-06
7.64084e-06
7.64109e-06
7.64258e-06
7.64472e-06
7.64699e-06
7.64901e-06
7.65057e-06
7.65161e-06
7.65215e-06
7.65229e-06
7.65216e-06
7.65186e-06
7.6515e-06
7.65114e-06
7.65081e-06
7.65054e-06
7.65033e-06
7.65017e-06
7.65006e-06
7.64998e-06
7.64993e-06
7.6499e-06
7.64988e-06
7.64987e-06
7.64986e-06
7.64986e-06
7.64987e-06
7.64987e-06
7.64989e-06
7.64991e-06
7.64995e-06
7.64999e-06
7.65006e-06
7.65017e-06
7.6504e-06
7.65086e-06
7.6518e-06
7.65371e-06
7.65757e-06
7.66544e-06
7.68144e-06
7.71425e-06
7.78334e-06
7.99873e-06
7.96339e-06
7.92958e-06
7.89721e-06
7.86622e-06
7.83659e-06
7.80832e-06
7.78151e-06
7.7563e-06
7.73291e-06
7.71162e-06
7.69275e-06
7.67662e-06
7.66348e-06
7.65347e-06
7.64654e-06
7.64247e-06
7.64084e-06
7.64109e-06
7.64258e-06
7.64472e-06
7.64699e-06
7.64901e-06
7.65057e-06
7.65161e-06
7.65215e-06
7.65229e-06
7.65216e-06
7.65186e-06
7.6515e-06
7.65114e-06
7.65081e-06
7.65054e-06
7.65033e-06
7.65017e-06
7.65006e-06
7.64998e-06
7.64993e-06
7.6499e-06
7.64988e-06
7.64987e-06
7.64986e-06
7.64986e-06
7.64987e-06
7.64988e-06
7.64989e-06
7.64991e-06
7.64995e-06
7.65e-06
7.65006e-06
7.6502e-06
7.65046e-06
7.651e-06
7.65208e-06
7.65428e-06
7.65879e-06
7.66803e-06
7.68684e-06
7.72533e-06
7.80675e-06
7.99873e-06
7.96339e-06
7.92958e-06
7.89721e-06
7.86622e-06
7.83659e-06
7.80832e-06
7.78151e-06
7.7563e-06
7.73291e-06
7.71162e-06
7.69275e-06
7.67662e-06
7.66348e-06
7.65347e-06
7.64654e-06
7.64247e-06
7.64084e-06
7.64109e-06
7.64258e-06
7.64472e-06
7.64699e-06
7.64901e-06
7.65057e-06
7.65161e-06
7.65215e-06
7.65229e-06
7.65216e-06
7.65186e-06
7.6515e-06
7.65114e-06
7.65081e-06
7.65054e-06
7.65033e-06
7.65017e-06
7.65006e-06
7.64998e-06
7.64993e-06
7.6499e-06
7.64988e-06
7.64987e-06
7.64986e-06
7.64986e-06
7.64987e-06
7.64988e-06
7.6499e-06
7.64992e-06
7.64996e-06
7.65002e-06
7.6501e-06
7.65025e-06
7.65055e-06
7.65116e-06
7.65239e-06
7.6549e-06
7.66006e-06
7.67055e-06
7.6919e-06
7.73591e-06
7.82937e-06
7.99873e-06
7.96339e-06
7.92958e-06
7.89721e-06
7.86622e-06
7.83659e-06
7.80832e-06
7.78151e-06
7.7563e-06
7.73291e-06
7.71162e-06
7.69275e-06
7.67662e-06
7.66348e-06
7.65347e-06
7.64654e-06
7.64247e-06
7.64084e-06
7.64109e-06
7.64258e-06
7.64472e-06
7.64699e-06
7.64901e-06
7.65057e-06
7.65161e-06
7.65215e-06
7.65229e-06
7.65216e-06
7.65186e-06
7.6515e-06
7.65114e-06
7.65081e-06
7.65054e-06
7.65033e-06
7.65017e-06
7.65006e-06
7.64998e-06
7.64993e-06
7.6499e-06
7.64988e-06
7.64987e-06
7.64986e-06
7.64986e-06
7.64987e-06
7.64988e-06
7.64989e-06
7.64992e-06
7.64995e-06
7.65001e-06
7.65009e-06
7.65025e-06
7.65058e-06
7.65127e-06
7.65265e-06
7.65544e-06
7.66113e-06
7.6727e-06
7.69633e-06
7.74529e-06
7.85061e-06
7.99873e-06
7.96339e-06
7.92958e-06
7.89721e-06
7.86622e-06
7.83659e-06
7.80832e-06
7.78151e-06
7.7563e-06
7.73291e-06
7.71162e-06
7.69275e-06
7.67662e-06
7.66348e-06
7.65347e-06
7.64654e-06
7.64247e-06
7.64084e-06
7.64109e-06
7.64258e-06
7.64472e-06
7.64699e-06
7.64901e-06
7.65057e-06
7.65161e-06
7.65215e-06
7.65229e-06
7.65216e-06
7.65186e-06
7.6515e-06
7.65114e-06
7.65081e-06
7.65054e-06
7.65033e-06
7.65017e-06
7.65006e-06
7.64998e-06
7.64993e-06
7.6499e-06
7.64988e-06
7.64987e-06
7.64986e-06
7.64986e-06
7.64987e-06
7.64988e-06
7.6499e-06
7.64993e-06
7.64997e-06
7.65003e-06
7.65012e-06
7.6503e-06
7.65066e-06
7.6514e-06
7.65288e-06
7.6559e-06
7.66201e-06
7.67451e-06
7.70024e-06
7.75344e-06
7.868e-06
7.99873e-06
7.96339e-06
7.92958e-06
7.89721e-06
7.86622e-06
7.83659e-06
7.80832e-06
7.78151e-06
7.7563e-06
7.73291e-06
7.71162e-06
7.69275e-06
7.67662e-06
7.66348e-06
7.65347e-06
7.64654e-06
7.64247e-06
7.64084e-06
7.64109e-06
7.64258e-06
7.64472e-06
7.64699e-06
7.64901e-06
7.65057e-06
7.65161e-06
7.65215e-06
7.65229e-06
7.65216e-06
7.65186e-06
7.6515e-06
7.65114e-06
7.65081e-06
7.65054e-06
7.65033e-06
7.65017e-06
7.65006e-06
7.64998e-06
7.64993e-06
7.6499e-06
7.64988e-06
7.64987e-06
7.64986e-06
7.64986e-06
7.64987e-06
7.64988e-06
7.6499e-06
7.64992e-06
7.64996e-06
7.65001e-06
7.6501e-06
7.65029e-06
7.65066e-06
7.65143e-06
7.65299e-06
7.65619e-06
7.66266e-06
7.67581e-06
7.70277e-06
7.75856e-06
7.8793e-06
7.99873e-06
7.96339e-06
7.92958e-06
7.89721e-06
7.86622e-06
7.83659e-06
7.80832e-06
7.78151e-06
7.7563e-06
7.73291e-06
7.71162e-06
7.69275e-06
7.67662e-06
7.66348e-06
7.65347e-06
7.64654e-06
7.64247e-06
7.64084e-06
7.64109e-06
7.64258e-06
7.64472e-06
7.64699e-06
7.64901e-06
7.65057e-06
7.65161e-06
7.65215e-06
7.65229e-06
7.65216e-06
7.65186e-06
7.6515e-06
7.65114e-06
7.65081e-06
7.65054e-06
7.65033e-06
7.65017e-06
7.65006e-06
7.64998e-06
7.64993e-06
7.6499e-06
7.64988e-06
7.64987e-06
7.64986e-06
7.64986e-06
7.64987e-06
7.64988e-06
7.6499e-06
7.64993e-06
7.64997e-06
7.65003e-06
7.65012e-06
7.65031e-06
7.6507e-06
7.65149e-06
7.6531e-06
7.65635e-06
7.66295e-06
7.6764e-06
7.70389e-06
7.76086e-06
7.88489e-06
7.99873e-06
7.96339e-06
7.92958e-06
7.89721e-06
7.86622e-06
7.83659e-06
7.80832e-06
7.78151e-06
7.7563e-06
7.73291e-06
7.71162e-06
7.69275e-06
7.67662e-06
7.66348e-06
7.65347e-06
7.64654e-06
7.64247e-06
7.64084e-06
7.64109e-06
7.64258e-06
7.64472e-06
7.64699e-06
7.64901e-06
7.65057e-06
7.65161e-06
7.65215e-06
7.65229e-06
7.65216e-06
7.65186e-06
7.6515e-06
7.65114e-06
7.65081e-06
7.65054e-06
7.65033e-06
7.65017e-06
7.65006e-06
7.64998e-06
7.64993e-06
7.6499e-06
7.64988e-06
7.64987e-06
7.64986e-06
7.64986e-06
7.64987e-06
7.64988e-06
7.6499e-06
7.64992e-06
7.64996e-06
7.65001e-06
7.65011e-06
7.6503e-06
7.65068e-06
7.65147e-06
7.65307e-06
7.65633e-06
7.66295e-06
7.6764e-06
7.70396e-06
7.76103e-06
7.88468e-06
7.99873e-06
7.96339e-06
7.92958e-06
7.89721e-06
7.86622e-06
7.83659e-06
7.80832e-06
7.78151e-06
7.7563e-06
7.73291e-06
7.71162e-06
7.69275e-06
7.67662e-06
7.66348e-06
7.65347e-06
7.64654e-06
7.64247e-06
7.64084e-06
7.64109e-06
7.64258e-06
7.64472e-06
7.64699e-06
7.64901e-06
7.65057e-06
7.65161e-06
7.65215e-06
7.65229e-06
7.65216e-06
7.65186e-06
7.6515e-06
7.65114e-06
7.65081e-06
7.65054e-06
7.65033e-06
7.65017e-06
7.65006e-06
7.64998e-06
7.64993e-06
7.6499e-06
7.64988e-06
7.64987e-06
7.64986e-06
7.64987e-06
7.64987e-06
7.64988e-06
7.6499e-06
7.64993e-06
7.64997e-06
7.65003e-06
7.65013e-06
7.65032e-06
7.6507e-06
7.65148e-06
7.65305e-06
7.65623e-06
7.6627e-06
7.67585e-06
7.70285e-06
7.75891e-06
7.88005e-06
7.99873e-06
7.96339e-06
7.92958e-06
7.89721e-06
7.86622e-06
7.83659e-06
7.80832e-06
7.78151e-06
7.7563e-06
7.73291e-06
7.71162e-06
7.69275e-06
7.67662e-06
7.66348e-06
7.65347e-06
7.64654e-06
7.64247e-06
7.64084e-06
7.64109e-06
7.64258e-06
7.64472e-06
7.64699e-06
7.64901e-06
7.65057e-06
7.65161e-06
7.65215e-06
7.65229e-06
7.65216e-06
7.65186e-06
7.6515e-06
7.65114e-06
7.65081e-06
7.65054e-06
7.65033e-06
7.65017e-06
7.65006e-06
7.64998e-06
7.64993e-06
7.6499e-06
7.64988e-06
7.64987e-06
7.64986e-06
7.64986e-06
7.64987e-06
7.64988e-06
7.6499e-06
7.64992e-06
7.64996e-06
7.65002e-06
7.6501e-06
7.65028e-06
7.65065e-06
7.65139e-06
7.65288e-06
7.65591e-06
7.66207e-06
7.67461e-06
7.70023e-06
7.75341e-06
7.86835e-06
7.99873e-06
7.96339e-06
7.92958e-06
7.89721e-06
7.86622e-06
7.83659e-06
7.80832e-06
7.78151e-06
7.7563e-06
7.73291e-06
7.71162e-06
7.69275e-06
7.67662e-06
7.66348e-06
7.65347e-06
7.64654e-06
7.64247e-06
7.64084e-06
7.64109e-06
7.64258e-06
7.64472e-06
7.64699e-06
7.64901e-06
7.65057e-06
7.65161e-06
7.65215e-06
7.65229e-06
7.65216e-06
7.65186e-06
7.6515e-06
7.65114e-06
7.65081e-06
7.65054e-06
7.65033e-06
7.65017e-06
7.65006e-06
7.64998e-06
7.64993e-06
7.6499e-06
7.64988e-06
7.64987e-06
7.64986e-06
7.64986e-06
7.64987e-06
7.64988e-06
7.6499e-06
7.64993e-06
7.64997e-06
7.65004e-06
7.65014e-06
7.6503e-06
7.65063e-06
7.65131e-06
7.65267e-06
7.65546e-06
7.66116e-06
7.67268e-06
7.69636e-06
7.74557e-06
7.85057e-06
7.99873e-06
7.96339e-06
7.92958e-06
7.89721e-06
7.86622e-06
7.83659e-06
7.80832e-06
7.78151e-06
7.7563e-06
7.73291e-06
7.71162e-06
7.69275e-06
7.67662e-06
7.66348e-06
7.65347e-06
7.64654e-06
7.64247e-06
7.64084e-06
7.64109e-06
7.64258e-06
7.64472e-06
7.64699e-06
7.64901e-06
7.65057e-06
7.65161e-06
7.65215e-06
7.65229e-06
7.65216e-06
7.65186e-06
7.6515e-06
7.65114e-06
7.65081e-06
7.65054e-06
7.65033e-06
7.65017e-06
7.65006e-06
7.64998e-06
7.64993e-06
7.6499e-06
7.64988e-06
7.64987e-06
7.64986e-06
7.64987e-06
7.64987e-06
7.64988e-06
7.6499e-06
7.64993e-06
7.64998e-06
7.65004e-06
7.65014e-06
7.6503e-06
7.65061e-06
7.65123e-06
7.65249e-06
7.65503e-06
7.66019e-06
7.67075e-06
7.69236e-06
7.73672e-06
7.8308e-06
7.99873e-06
7.96339e-06
7.92958e-06
7.89721e-06
7.86622e-06
7.83659e-06
7.80832e-06
7.78151e-06
7.7563e-06
7.73291e-06
7.71162e-06
7.69275e-06
7.67662e-06
7.66348e-06
7.65347e-06
7.64654e-06
7.64247e-06
7.64084e-06
7.64109e-06
7.64258e-06
7.64472e-06
7.64699e-06
7.64901e-06
7.65057e-06
7.65161e-06
7.65215e-06
7.65229e-06
7.65216e-06
7.65186e-06
7.6515e-06
7.65114e-06
7.65081e-06
7.65054e-06
7.65033e-06
7.65017e-06
7.65006e-06
7.64998e-06
7.64993e-06
7.6499e-06
7.64988e-06
7.64987e-06
7.64986e-06
7.64986e-06
7.64987e-06
7.64988e-06
7.64989e-06
7.64992e-06
7.64995e-06
7.65e-06
7.65008e-06
7.65021e-06
7.65047e-06
7.65101e-06
7.65211e-06
7.65433e-06
7.65885e-06
7.66805e-06
7.68681e-06
7.72544e-06
7.80717e-06
7.99873e-06
7.96339e-06
7.92958e-06