/*--------------------------------*- C++ -*----------------------------------*\
  =========                 |
  \\      /  F ield         | OpenFOAM: The Open Source CFD Toolbox
   \\    /   O peration     | Website:  https://openfoam.org
    \\  /    A nd           | Version:  9
     \\/     M anipulation  |
\*---------------------------------------------------------------------------*/
FoamFile
{
    format      ascii;
    class       volScalarField;
    location    "0.003";
    object      epsilon;
}
// * * * * * * * * * * * * * * * * * * * * * * * * * * * * * * * * * * * * * //

dimensions      [0 2 -3 0 0 0 0];

internalField   nonuniform List<scalar> 
36400
(
250692
234150
219233
205821
193820
183140
173682
165330
157964
151460
145707
140602
136055
131986
128333
125052
122120
119540
117338
115557
114258
113501
113305
113605
114246
115033
115776
116337
116653
116709
116482
115931
115067
113983
112819
111732
110880
110428
110558
111419
113047
115241
117744
120334
122730
124832
126830
128776
130544
132102
132955
133101
133310
134007
135331
137108
138685
139531
139992
139119
250687
234125
219160
205656
193501
182597
172845
164140
156378
149457
143281
137765
132832
128413
124454
120911
117758
114983
112590
110590
109007
107858
107140
106799
106737
106829
106959
107035
107002
106834
106503
105978
105263
104412
103512
102667
101976
101537
101434
101726
102410
103385
104522
105716
106849
107868
108821
109708
110469
111075
111382
111401
111371
111452
111713
112116
112487
112680
112781
112718
250682
234098
219082
205476
193151
181995
171907
162790
154557
147124
140417
134370
128924
124027
119637
115717
112240
109185
106537
104284
102413
100911
99753.3
98898.1
98286.4
97851.4
97528
97260.5
97005.9
96731.3
96407.7
96011.7
95538.7
95008.8
94462
93947.9
93516.3
93209.5
93059
93078.9
93260.2
93565.1
93947.3
94365.8
94780.9
95167.3
95519.2
95824.3
96060.3
96214.5
96263.6
96216.3
96122
96023.4
95945.3
95890.4
95836
95763.7
95700
95749.7
250678
234081
219033
205364
192931
181613
171303
161908
153346
145545
138444
131989
126136
120847
116091
111840
108073
104767
101901
99451.2
97393
95696.4
94327.2
93245.3
92406
91763
91271.6
90890.7
90583.9
90320
90072.4
89821.2
89556.6
89281
89006.7
88751.7
88535.5
88374.1
88278.3
88251
88287
88373.2
88493.3
88631.3
88771.9
88902.9
89015.5
89102.2
89155.8
89173.1
89152.7
89099.3
89023.7
88936.8
88846.5
88757
88668.5
88582.2
88511
88522.8
250677
234073
219011
205314
192832
181437
171021
161488
152758
144763
137446
130761
124670
119144
114158
109694
105733
102257
99244.1
96670.5
94506.3
92717.2
91264.7
90107.1
89201.6
88505.4
87978
87582
87284
87055.1
86871.2
86714.1
86571.8
86438.7
86314.8
86203.5
86110.1
86039.4
85994.4
85975.5
85980.6
86005.1
86042.7
86087.3
86132.4
86172.6
86203.8
86222.7
86227.4
86217.7
86194.6
86160.3
86118.1
86071
86021.6
85971.7
85922.5
85875.6
85836.7
85834
250676
234071
219003
205296
192795
181372
170914
161326
152527
144450
137038
130248
124045
118403
113302
108726
104662
101092
97998.7
95357.1
93137.7
91305
89819.1
88637.1
87715
87009.5
86479.9
86089.1
85804.5
85598.3
85447.8
85335.4
85248.3
85178.1
85119.9
85071.6
85033
85004.1
84985.3
84976.3
84976.1
84982.9
84994.5
85008.4
85022.1
85033.5
85040.9
85043.3
85040.2
85031.9
85018.9
85002.4
84983.5
84963.1
84942.2
84921.2
84900.8
84881.6
84865.9
84863.8
250676
234070
219001
205290
192784
181352
170880
161273
152450
144342
136894
130063
123815
118125
112975
108351
104240
100627
97495.8
94821.9
92576.2
90723.5
89223.3
88032.2
87105.3
86398.6
85870.8
85484.5
85207.1
85011.2
84874.4
84779.3
84713
84666
84632.1
84607.3
84589.2
84576.4
84568.3
84564
84563.1
84564.7
84568.1
84572.2
84576.2
84579.3
84580.9
84580.6
84578.4
84574.4
84568.9
84562.3
84555
84547.4
84539.8
84532.3
84525.1
84518.5
84513.2
84513.1
250676
234070
219000
205289
192781
181346
170871
161258
152427
144309
136849
130004
123740
118033
112865
108222
104092
100462
97315
94627.6
92370.8
90509.5
89003.3
87808.4
86879.6
86172.7
85645.9
85261.6
84987.1
84795
84663
84573.8
84514.3
84475
84449.1
84432
84420.7
84413.5
84409
84406.5
84405.6
84405.7
84406.5
84407.7
84408.8
84409.6
84409.9
84409.6
84408.7
84407.1
84405.1
84402.9
84400.4
84397.9
84395.4
84393
84390.8
84388.8
84387.4
84387.9
250676
234070
219000
205288
192780
181345
170868
161254
152420
144300
136836
129987
123718
118005
112830
108181
104045
100409
97255.9
94563.3
92302.4
90437.7
88929.1
87732.7
86803.2
86096.1
85569.7
85186.1
84912.5
84721.7
84591.2
84503.9
84446.5
84409.5
84385.9
84371.2
84362
84356.5
84353.2
84351.3
84350.4
84350.1
84350.2
84350.4
84350.7
84350.9
84350.9
84350.8
84350.4
84350
84349.3
84348.6
84347.9
84347.1
84346.4
84345.7
84345.1
84344.7
84344.4
84345.1
250676
234070
219000
205288
192780
181344
170867
161253
152419
144297
136833
129982
123711
117997
112820
108169
104031
100393
97238
94543.7
92281.3
90415.5
88906.1
87709.1
86779.2
86072.1
85545.7
85162.3
84889.1
84698.6
84568.6
84481.8
84425.1
84388.7
84365.8
84351.7
84343.2
84338.1
84335.2
84333.5
84332.6
84332.2
84332
84332
84332
84332.1
84332.1
84332
84331.9
84331.8
84331.6
84331.4
84331.2
84331
84330.8
84330.7
84330.6
84330.6
84330.8
84331.5
250676
234070
219000
205288
192780
181344
170867
161253
152418
144297
136832
129981
123710
117994
112818
108166
104027
100388
97232.9
94538.2
92275.3
90409.2
88899.4
87702.2
86772.3
86065.1
85538.7
85155.4
84882.3
84691.9
84562
84475.4
84418.8
84382.6
84359.9
84346
84337.6
84332.7
84329.8
84328.2
84327.4
84326.9
84326.7
84326.6
84326.5
84326.5
84326.5
84326.5
84326.4
84326.4
84326.4
84326.3
84326.3
84326.3
84326.3
84326.3
84326.4
84326.5
84326.9
84327.8
250676
234070
219000
205288
192780
181344
170867
161252
152418
144296
136832
129980
123709
117994
112817
108165
104026
100387
97231.6
94536.7
92273.7
90407.4
88897.6
87700.3
86770.4
86063.1
85536.8
85153.5
84880.4
84690
84560.2
84473.6
84417
84380.9
84358.3
84344.4
84336.1
84331.2
84328.4
84326.8
84325.9
84325.4
84325.2
84325
84325
84325
84324.9
84324.9
84324.9
84324.9
84324.9
84324.9
84324.9
84325
84325
84325.1
84325.3
84325.5
84326.1
84327.5
250676
234070
219000
205288
192780
181344
170867
161252
152418
144296
136832
129980
123709
117994
112817
108165
104026
100387
97231.3
94536.3
92273.3
90407
88897.1
87699.9
86769.9
86062.6
85536.3
85153
84879.9
84689.5
84559.7
84473.1
84416.6
84380.4
84357.8
84344
84335.7
84330.8
84328
84326.4
84325.5
84325
84324.8
84324.7
84324.6
84324.6
84324.6
84324.6
84324.6
84324.6
84324.6
84324.6
84324.6
84324.7
84324.7
84324.8
84325.1
84325.6
84326.6
84328.8
250676
234070
219000
205288
192780
181344
170867
161252
152418
144296
136832
129980
123709
117994
112817
108165
104026
100387
97231.2
94536.2
92273.2
90406.9
88897
87699.7
86769.7
86062.5
85536.2
85152.9
84879.8
84689.4
84559.6
84473
84416.5
84380.3
84357.7
84343.9
84335.6
84330.7
84327.9
84326.3
84325.4
84324.9
84324.7
84324.6
84324.5
84324.5
84324.5
84324.5
84324.5
84324.5
84324.5
84324.5
84324.6
84324.6
84324.7
84324.9
84325.3
84326.1
84327.7
84331.2
250676
234070
219000
205288
192780
181344
170867
161252
152418
144296
136832
129980
123709
117994
112817
108165
104026
100387
97231.2
94536.2
92273.1
90406.9
88897
87699.7
86769.7
86062.5
85536.1
85152.8
84879.7
84689.4
84559.6
84473
84416.4
84380.3
84357.7
84343.9
84335.6
84330.7
84327.9
84326.3
84325.4
84324.9
84324.7
84324.5
84324.5
84324.5
84324.4
84324.4
84324.5
84324.5
84324.5
84324.5
84324.6
84324.7
84324.8
84325.2
84325.8
84327
84329.6
84335.2
250676
234070
219000
205288
192780
181344
170867
161252
152418
144296
136832
129980
123709
117994
112817
108165
104026
100387
97231.2
94536.2
92273.1
90406.8
88897
87699.7
86769.7
86062.5
85536.1
85152.8
84879.7
84689.4
84559.6
84473
84416.4
84380.3
84357.7
84343.9
84335.5
84330.7
84327.9
84326.3
84325.4
84324.9
84324.7
84324.5
84324.5
84324.5
84324.4
84324.5
84324.5
84324.5
84324.5
84324.6
84324.7
84324.8
84325
84325.5
84326.5
84328.5
84332.6
84341.4
250676
234070
219000
205288
192780
181344
170867
161252
152418
144296
136832
129980
123709
117994
112817
108165
104026
100387
97231.2
94536.2
92273.1
90406.8
88897
87699.7
86769.7
86062.5
85536.1
85152.8
84879.7
84689.4
84559.6
84473
84416.4
84380.3
84357.7
84343.9
84335.5
84330.7
84327.9
84326.3
84325.4
84324.9
84324.7
84324.5
84324.5
84324.5
84324.5
84324.5
84324.5
84324.5
84324.6
84324.7
84324.8
84325
84325.4
84326.2
84327.8
84331
84337.5
84351.4
250676
234070
219000
205288
192780
181344
170867
161252
152418
144296
136832
129980
123709
117994
112817
108165
104026
100387
97231.2
94536.2
92273.1
90406.8
88897
87699.7
86769.7
86062.5
85536.1
85152.8
84879.7
84689.4
84559.6
84473
84416.4
84380.3
84357.7
84343.9
84335.5
84330.7
84327.9
84326.3
84325.4
84324.9
84324.7
84324.6
84324.5
84324.5
84324.5
84324.5
84324.5
84324.6
84324.7
84324.8
84325
84325.3
84325.9
84327.1
84329.6
84334.6
84344.8
84366.3
250676
234070
219000
205288
192780
181344
170867
161252
152418
144296
136832
129980
123709
117994
112817
108165
104026
100387
97231.2
94536.2
92273.1
90406.8
88897
87699.7
86769.7
86062.5
85536.1
85152.8
84879.7
84689.4
84559.6
84473
84416.4
84380.3
84357.7
84343.9
84335.5
84330.7
84327.9
84326.3
84325.4
84324.9
84324.7
84324.6
84324.5
84324.5
84324.5
84324.5
84324.6
84324.7
84324.8
84325
84325.2
84325.7
84326.6
84328.5
84332.3
84340
84355.5
84387.9
250676
234070
219000
205288
192780
181344
170867
161252
152418
144296
136832
129980
123709
117994
112817
108165
104026
100387
97231.2
94536.2
92273.1
90406.8
88897
87699.7
86769.7
86062.5
85536.1
85152.8
84879.7
84689.4
84559.6
84473
84416.4
84380.3
84357.7
84343.9
84335.5
84330.7
84327.9
84326.3
84325.4
84324.9
84324.7
84324.6
84324.5
84324.5
84324.5
84324.6
84324.6
84324.8
84324.9
84325.1
84325.5
84326.2
84327.5
84330.3
84336
84347.4
84370.3
84418.2
250676
234070
219000
205288
192780
181344
170867
161252
152418
144296
136832
129980
123709
117994
112817
108165
104026
100387
97231.2
94536.2
92273.1
90406.8
88897
87699.7
86769.7
86062.5
85536.1
85152.8
84879.7
84689.4
84559.6
84473
84416.4
84380.3
84357.7
84343.9
84335.5
84330.7
84327.9
84326.3
84325.4
84324.9
84324.7
84324.6
84324.5
84324.5
84324.6
84324.6
84324.7
84324.9
84325.1
84325.4
84325.9
84326.9
84328.8
84332.8
84340.8
84357.1
84390.3
84459.2
250676
234070
219000
205288
192780
181344
170867
161252
152418
144296
136832
129980
123709
117994
112817
108165
104026
100387
97231.2
94536.2
92273.1
90406.8
88897
87699.7
86769.7
86062.5
85536.1
85152.8
84879.7
84689.4
84559.6
84473
84416.4
84380.3
84357.7
84343.9
84335.5
84330.7
84327.9
84326.3
84325.4
84324.9
84324.7
84324.6
84324.6
84324.6
84324.6
84324.7
84324.8
84325
84325.3
84325.7
84326.3
84327.7
84330.6
84336.4
84348
84371.6
84419.2
84518.3
250676
234070
219000
205288
192780
181344
170867
161252
152418
144296
136832
129980
123709
117994
112817
108165
104026
100387
97231.2
94536.2
92273.1
90406.8
88897
87699.7
86769.7
86062.5
85536.1
85152.8
84879.7
84689.4
84559.6
84473
84416.4
84380.3
84357.7
84343.9
84335.5
84330.7
84327.9
84326.3
84325.4
84325
84324.7
84324.6
84324.6
84324.6
84324.6
84324.7
84324.9
84325.1
84325.5
84325.9
84326.9
84328.9
84332.9
84340.9
84357
84389.7
84455.9
84593.9
250676
234070
219000
205288
192780
181344
170867
161252
152418
144296
136832
129980
123709
117994
112817
108165
104026
100387
97231.2
94536.2
92273.1
90406.8
88897
87699.7
86769.7
86062.5
85536.1
85152.8
84879.7
84689.4
84559.6
84473
84416.4
84380.3
84357.7
84343.9
84335.6
84330.7
84327.9
84326.3
84325.4
84325
84324.7
84324.6
84324.6
84324.6
84324.7
84324.8
84325
84325.3
84325.7
84326.3
84327.5
84330.1
84335.3
84345.9
84367.5
84411.4
84501.2
84689
250676
234070
219000
205288
192780
181344
170867
161252
152418
144296
136832
129980
123709
117994
112817
108165
104026
100387
97231.2
94536.2
92273.1
90406.8
88897
87699.7
86769.7
86062.5
85536.1
85152.8
84879.7
84689.4
84559.6
84473
84416.4
84380.3
84357.7
84343.9
84335.6
84330.7
84327.9
84326.3
84325.4
84325
84324.7
84324.6
84324.6
84324.7
84324.8
84324.9
84325.1
84325.4
84325.9
84326.8
84328.5
84332
84338.9
84353.2
84382.3
84441.2
84560.7
84812.5
250676
234070
219000
205288
192780
181344
170867
161252
152418
144296
136832
129980
123709
117994
112817
108165
104026
100387
97231.2
94536.2
92273.1
90406.8
88897
87699.7
86769.7
86062.5
85536.1
85152.8
84879.7
84689.4
84559.6
84473
84416.4
84380.3
84357.7
84343.9
84335.6
84330.7
84327.9
84326.3
84325.4
84325
84324.7
84324.7
84324.6
84324.7
84324.8
84325
84325.2
84325.6
84326.2
84327.3
84329.4
84333.8
84342.8
84361
84398.6
84474.9
84630.2
84961.1
250676
234070
219000
205288
192780
181344
170867
161252
152418
144296
136832
129980
123709
117994
112817
108165
104026
100387
97231.2
94536.2
92273.1
90406.8
88897
87699.7
86769.7
86062.5
85536.1
85152.8
84879.7
84689.4
84559.6
84473
84416.4
84380.3
84357.7
84343.9
84335.6
84330.7
84327.9
84326.3
84325.4
84325
84324.8
84324.7
84324.7
84324.7
84324.9
84325.1
84325.4
84325.8
84326.5
84327.9
84330.6
84336.2
84347.6
84370.6
84417.4
84513.5
84711.7
85138.6
250676
234070
219000
205288
192780
181344
170867
161252
152418
144296
136832
129980
123709
117994
112817
108165
104026
100387
97231.2
94536.2
92273.1
90406.8
88897
87699.7
86769.7
86062.5
85536.1
85152.8
84879.7
84689.4
84559.6
84473
84416.4
84380.3
84357.7
84343.9
84335.6
84330.7
84327.9
84326.3
84325.4
84325
84324.8
84324.7
84324.7
84324.8
84324.9
84325.2
84325.5
84326
84326.8
84328.5
84331.9
84338.8
84352.7
84381
84438.8
84556.7
84800.4
85338.1
250676
234070
219000
205288
192780
181344
170867
161252
152418
144296
136832
129980
123709
117994
112817
108165
104026
100387
97231.2
94536.2
92273.1
90406.8
88897
87699.7
86769.7
86062.5
85536.1
85152.8
84879.7
84689.4
84559.6
84473
84416.4
84380.3
84357.7
84343.9
84335.6
84330.7
84327.9
84326.3
84325.4
84325
84324.8
84324.7
84324.7
84324.8
84325
84325.3
84325.6
84326.2
84327.2
84329.1
84333.1
84341.3
84357.9
84391.7
84460.8
84602.2
84896.3
85557.8
250676
234070
219000
205288
192780
181344
170867
161252
152418
144296
136832
129980
123709
117994
112817
108165
104026
100387
97231.2
94536.2
92273.1
90406.8
88897
87699.7
86769.7
86062.5
85536.1
85152.8
84879.7
84689.4
84559.6
84473
84416.4
84380.3
84357.7
84343.9
84335.6
84330.7
84327.9
84326.3
84325.4
84325
84324.8
84324.7
84324.7
84324.8
84325
84325.3
84325.7
84326.3
84327.5
84329.8
84334.6
84344.1
84363.4
84403
84484.3
84650.8
84997.8
85790.5
250676
234070
219000
205288
192780
181344
170867
161252
152418
144296
136832
129980
123709
117994
112817
108165
104026
100387
97231.2
94536.2
92273.1
90406.8
88897
87699.7
86769.7
86062.5
85536.1
85152.8
84879.7
84689.4
84559.6
84473
84416.4
84380.3
84357.7
84343.9
84335.6
84330.7
84327.9
84326.3
84325.5
84325
84324.8
84324.7
84324.8
84324.9
84325.1
84325.4
84325.8
84326.5
84327.8
84330.3
84335.6
84346.3
84368.2
84413.4
84505.6
84695
85093.7
86018.4
250676
234070
219000
205288
192780
181344
170867
161252
152418
144296
136832
129980
123709
117994
112817
108165
104026
100387
97231.2
94536.2
92273.1
90406.8
88897
87699.7
86769.7
86062.5
85536.1
85152.8
84879.7
84689.4
84559.6
84473
84416.4
84380.3
84357.7
84343.9
84335.6
84330.7
84327.9
84326.3
84325.5
84325
84324.8
84324.7
84324.8
84324.9
84325.1
84325.4
84325.8
84326.5
84328
84331
84337
84349.1
84373.7
84423.7
84525.9
84736.2
85182.2
86238
250676
234070
219000
205288
192780
181344
170867
161252
152418
144296
136832
129980
123709
117994
112817
108165
104026
100387
97231.2
94536.2
92273.1
90406.8
88897
87699.7
86769.7
86062.5
85536.1
85152.8
84879.7
84689.4
84559.6
84473
84416.4
84380.3
84357.7
84343.9
84335.6
84330.7
84327.9
84326.3
84325.5
84325
84324.8
84324.7
84324.8
84324.9
84325.1
84325.4
84325.9
84326.6
84328.2
84331.3
84337.7
84350.6
84377
84430.6
84540.8
84769.9
85256.2
86418.8
250676
234070
219000
205288
192780
181344
170867
161252
152418
144296
136832
129980
123709
117994
112817
108165
104026
100387
97231.2
94536.2
92273.1
90406.8
88897
87699.7
86769.7
86062.5
85536.1
85152.8
84879.7
84689.4
84559.6
84473
84416.4
84380.3
84357.7
84343.9
84335.6
84330.7
84327.9
84326.3
84325.5
84325
84324.8
84324.7
84324.8
84324.9
84325.1
84325.4
84325.9
84326.7
84328.3
84331.7
84338.4
84352.1
84380.1
84437
84553.2
84793.7
85305.4
86540
250676
234070
219000
205288
192780
181344
170867
161252
152418
144296
136832
129980
123709
117994
112817
108165
104026
100387
97231.2
94536.2
92273.1
90406.8
88897
87699.7
86769.7
86062.5
85536.1
85152.8
84879.7
84689.4
84559.6
84473
84416.4
84380.3
84357.7
84343.9
84335.6
84330.7
84327.9
84326.3
84325.5
84325
84324.8
84324.7
84324.8
84324.9
84325.1
84325.4
84325.9
84326.7
84328.3
84331.7
84338.6
84352.6
84381
84439
84557.7
84803
85326
86597
250676
234070
219000
205288
192780
181344
170867
161252
152418
144296
136832
129980
123709
117994
112817
108165
104026
100387
97231.2
94536.2
92273.1
90406.8
88897
87699.7
86769.7
86062.5
85536.1
85152.8
84879.7
84689.4
84559.6
84473
84416.4
84380.3
84357.7
84343.9
84335.6
84330.7
84327.9
84326.3
84325.5
84325
84324.8
84324.7
84324.8
84324.9
84325.1
84325.4
84325.9
84326.7
84328.4
84331.8
84338.6
84352.7
84381.3
84439.4
84558.2
84804
85328
86596.2
250676
234070
219000
205288
192780
181344
170867
161252
152418
144296
136832
129980
123709
117994
112817
108165
104026
100387
97231.2
94536.2
92273.1
90406.8
88897
87699.7
86769.7
86062.5
85536.1
85152.8
84879.7
84689.4
84559.6
84473
84416.4
84380.3
84357.7
84343.9
84335.6
84330.7
84327.9
84326.3
84325.5
84325
84324.8
84324.8
84324.8
84324.9
84325.1
84325.5
84326
84326.8
84328.4
84331.8
84338.5
84352.3
84380.2
84437
84553.1
84793.7
85307.1
86544.2
250676
234070
219000
205288
192780
181344
170867
161252
152418
144296
136832
129980
123709
117994
112817
108165
104026
100387
97231.2
94536.2
92273.1
90406.8
88897
87699.7
86769.7
86062.5
85536.1
85152.8
84879.7
84689.4
84559.6
84473
84416.4
84380.3
84357.7
84343.9
84335.6
84330.7
84327.9
84326.3
84325.5
84325
84324.8
84324.7
84324.8
84324.9
84325.1
84325.4
84325.9
84326.7
84328.3
84331.5
84338
84351.2
84377.8
84432
84542.8
84771.2
85257.4
86422.5
250676
234070
219000
205288
192780
181344
170867
161252
152418
144296
136832
129980
123709
117994
112817
108165
104026
100387
97231.2
94536.2
92273.1
90406.8
88897
87699.7
86769.7
86062.5
85536.1
85152.8
84879.7
84689.4
84559.6
84473
84416.4
84380.3
84357.7
84343.9
84335.6
84330.7
84327.9
84326.3
84325.5
84325
84324.8
84324.7
84324.8
84324.9
84325.1
84325.5
84326
84326.8
84328.2
84331.1
84336.9
84348.6
84372.9
84422.7
84524.3
84734.9
85182.9
86235.9
250676
234070
219000
205288
192780
181344
170867
161252
152418
144296
136832
129980
123709
117994
112817
108165
104026
100387
97231.2
94536.2
92273.1
90406.8
88897
87699.7
86769.7
86062.5
85536.1
85152.8
84879.7
84689.4
84559.6
84473
84416.4
84380.3
84357.7
84343.9
84335.6
84330.7
84327.9
84326.3
84325.5
84325
84324.8
84324.8
84324.8
84324.9
84325.2
84325.5
84326.1
84326.9
84328.2
84330.9
84336.4
84347.4
84369.8
84415.2
84508.1
84699.5
85100.9
86030
250676
234070
219000
205288
192780
181344
170867
161252
152418
144296
136832
129980
123709
117994
112817
108165
104026
100387
97231.2
94536.2
92273.1
90406.8
88897
87699.7
86769.7
86062.5
85536.1
85152.8
84879.7
84689.4
84559.6
84473
84416.4
84380.3
84357.7
84343.9
84335.6
84330.7
84327.9
84326.3
84325.5
84325
84324.8
84324.7
84324.8
84324.9
84325.1
84325.4
84325.9
84326.6
84327.8
84330.2
84335.2
84345
84364.8
84404.8
84486.1
84652.5
85000.7
85795.6
250676
234070
219000
205288
192780
181344
170867
161252
152418
144296
136832
129980
123709
117994
112817
108165
104026
100387
97231.2
94536.2
92273.1
90406.8
88897
87699.7
86769.7
86062.5
85536.1
85152.8
84879.7
84689.4
84559.6
84473
84416.4
84380.3
84357.7
84343.9
84335.6
84330.7
84327.9
84326.3
84325.5
84325
84324.8
84324.7
84324.8
84324.9
84325.1
84325.4
84325.9
84326.7
84328.1
84330.3
84334.1
84341.6
84357.1
84389.4
84457.2
84596.8
84887.2
85542.3
250676
234070
219000
205288
192780
181344
170867
161252
152418
144296
136832
129980
123709
117994
112817
108165
104026
100387
97231.2
94536.2
92273.1
90406.8
88897
87699.7
86769.7
86062.5
85536.1
85152.8
84879.7
84689.4
84559.6
84473
84416.4
84380.3
84357.7
84343.9
84335.6
84330.7
84327.9
84326.3
84325.4
84325
84324.8
84324.7
84324.7
84324.8
84324.9
84325.2
84325.5
84326.1
84327
84328.8
84332.4
84339.4
84353.6
84382.1
84439.8
84558
84802.9
85338.7
250676
234070
219000
205288
192780
181344
170867
161252
152418
144296
136832
129980
123709
117994
112817
108165
104026
100387
97231.2
94536.2
92273.1
90406.8
88897
87699.7
86769.7
86062.5
85536.1
85152.8
84879.7
84689.4
84559.6
84473
84416.4
84380.3
84357.7
84343.9
84335.6
84330.7
84327.9
84326.3
84325.4
84325
84324.8
84324.7
84324.7
84324.8
84324.9
84325.2
84325.5
84326.1
84327
84328.4
84331.2
84336.9
84348.3
84371.6
84419.2
84516.1
84714.5
85141.2
250676
234070
219000
205288
192780
181344
170867
161252
152418
144296
136832
129980
123709
117994
112817
108165
104026
100387
97231.2
94536.2
92273.1
90406.8
88897
87699.7
86769.7
86062.5
85536.1
85152.8
84879.7
84689.4
84559.6
84473
84416.4
84380.3
84357.7
84343.9
84335.6
84330.7
84327.9
84326.3
84325.4
84325
84324.7
84324.6
84324.6
84324.7
84324.8
84324.9
84325.2
84325.6
84326.1
84327.3
84329.5
84333.9
84343
84361.4
84398.8
84475.4
84631.9
84964.2
250676
234070
219000
205288
192780
181344
170867
161252
152418
144296
136832
129980
123709
117994
112817
108165
104026
100387
97231.2
94536.2
92273.1
90406.8
88897
87699.7
86769.7
86062.5
85536.1
85152.8
84879.7
84689.4
84559.6
84473
84416.4
84380.3
84357.7
84343.9
84335.6
84330.7
84327.9
84326.3
84325.4
84325
84324.7
84324.6
84324.6
84324.6
84324.7
84324.8
84325
84325.3
84325.8
84326.6
84328.4
84331.8
84338.9
84353.2
84382.1
84441
84561.3
84814.2
250676
234070
219000
205288
192780
181344
170867
161252
152418
144296
136832
129980
123709
117994
112817
108165
104026
100387
97231.2
94536.2
92273.1
90406.8
88897
87699.7
86769.7
86062.5
85536.1
85152.8
84879.7
84689.4
84559.6
84473
84416.4
84380.3
84357.7
84343.9
84335.5
84330.7
84327.9
84326.3
84325.4
84325
84324.7
84324.6
84324.6
84324.6
84324.6
84324.7
84324.9
84325.1
84325.4
84326.1
84327.4
84330
84335.3
84346
84367.8
84412.3
84502.8
84691.3
250676
234070
219000
205288
192780
181344
170867
161252
152418
144296
136832
129980
123709
117994
112817
108165
104026
100387
97231.2
94536.2
92273.1
90406.8
88897
87699.7
86769.7
86062.5
85536.1
85152.8
84879.7
84689.4
84559.6
84473
84416.4
84380.3
84357.7
84343.9
84335.5
84330.7
84327.9
84326.3
84325.4
84324.9
84324.7
84324.6
84324.5
84324.5
84324.6
84324.7
84324.8
84324.9
84325.2
84325.7
84326.6
84328.5
84332.4
84340.3
84356.4
84389.2
84455.5
84593.1
250676
234070
219000
205288
192780
181344
170867
161252
152418
144296
136832
129980
123709
117994
112817
108165
104026
100387
97231.2
94536.2
92273.1
90406.8
88897
87699.7
86769.7
86062.5
85536.1
85152.8
84879.7
84689.4
84559.6
84473
84416.4
84380.3
84357.7
84343.9
84335.5
84330.7
84327.9
84326.3
84325.4
84324.9
84324.7
84324.6
84324.5
84324.5
84324.5
84324.6
84324.7
84324.8
84325
84325.3
84326
84327.4
84330.2
84335.9
84347.5
84370.9
84418.2
84516.4
250676
234070
219000
205288
192780
181344
170867
161252
152418
144296
136832
129980
123709
117994
112817
108165
104026
100387
97231.2
94536.2
92273.1
90406.8
88897
87699.7
86769.7
86062.5
85536.1
85152.8
84879.7
84689.4
84559.6
84473
84416.4
84380.3
84357.7
84343.9
84335.5
84330.7
84327.9
84326.3
84325.4
84324.9
84324.7
84324.6
84324.5
84324.5
84324.5
84324.6
84324.6
84324.7
84324.9
84325.1
84325.6
84326.6
84328.5
84332.5
84340.6
84357
84390
84458.7
250676
234070
219000
205288
192780
181344
170867
161252
152418
144296
136832
129980
123709
117994
112817
108165
104026
100387
97231.2
94536.2
92273.1
90406.8
88897
87699.7
86769.7
86062.5
85536.1
85152.8
84879.7
84689.4
84559.6
84473
84416.4
84380.3
84357.7
84343.9
84335.5
84330.7
84327.9
84326.3
84325.4
84324.9
84324.7
84324.6
84324.5
84324.5
84324.5
84324.5
84324.6
84324.7
84324.8
84324.9
84325.3
84325.9
84327.3
84330
84335.5
84346.7
84369.3
84416.7
250676
234070
219000
205288
192780
181344
170867
161252
152418
144296
136832
129980
123709
117994
112817
108165
104026
100387
97231.2
94536.2
92273.1
90406.8
88897
87699.7
86769.7
86062.5
85536.1
85152.8
84879.7
84689.4
84559.6
84473
84416.4
84380.3
84357.7
84343.9
84335.5
84330.7
84327.9
84326.3
84325.4
84324.9
84324.7
84324.6
84324.5
84324.5
84324.5
84324.5
84324.5
84324.6
84324.7
84324.8
84325.1
84325.5
84326.4
84328.3
84332
84339.6
84354.8
84386.7
250676
234070
219000
205288
192780
181344
170867
161252
152418
144296
136832
129980
123709
117994
112817
108165
104026
100387
97231.2
94536.2
92273.1
90406.8
88897
87699.7
86769.7
86062.5
85536.1
85152.8
84879.7
84689.4
84559.6
84473
84416.4
84380.3
84357.7
84343.9
84335.5
84330.7
84327.9
84326.3
84325.4
84324.9
84324.7
84324.6
84324.5
84324.5
84324.5
84324.5
84324.5
84324.6
84324.7
84324.8
84324.9
84325.2
84325.8
84327
84329.5
84334.5
84344.6
84365.9
250676
234070
219000
205288
192780
181344
170867
161252
152418
144296
136832
129980
123709
117994
112817
108165
104026
100387
97231.2
94536.2
92273.1
90406.8
88897
87699.7
86769.7
86062.5
85536.1
85152.8
84879.7
84689.4
84559.6
84473
84416.4
84380.3
84357.7
84343.9
84335.5
84330.7
84327.9
84326.3
84325.4
84324.9
84324.7
84324.5
84324.5
84324.5
84324.5
84324.5
84324.5
84324.5
84324.6
84324.7
84324.8
84325
84325.4
84326.2
84327.8
84331
84337.5
84351.4
250676
234070
219000
205288
192780
181344
170867
161252
152418
144296
136832
129980
123709
117994
112817
108165
104026
100387
97231.2
94536.2
92273.1
90406.8
88897
87699.7
86769.7
86062.5
85536.1
85152.8
84879.7
84689.4
84559.6
84473
84416.4
84380.3
84357.7
84343.9
84335.5
84330.7
84327.9
84326.3
84325.4
84324.9
84324.7
84324.5
84324.5
84324.5
84324.5
84324.5
84324.5
84324.5
84324.6
84324.6
84324.7
84324.9
84325.1
84325.6
84326.6
84328.7
84332.8
84341.6
250676
234070
219000
205288
192780
181344
170867
161252
152418
144296
136832
129980
123709
117994
112817
108165
104026
100387
97231.2
94536.2
92273.1
90406.9
88897
87699.7
86769.7
86062.5
85536.1
85152.8
84879.7
84689.4
84559.6
84473
84416.4
84380.3
84357.7
84343.9
84335.6
84330.7
84327.9
84326.3
84325.4
84324.9
84324.7
84324.5
84324.5
84324.5
84324.5
84324.5
84324.5
84324.5
84324.5
84324.6
84324.7
84324.8
84324.9
84325.2
84325.9
84327.1
84329.6
84335
250676
234070
219000
205288
192780
181344
170867
161252
152418
144296
136832
129980
123709
117994
112817
108165
104026
100387
97231.2
94536.2
92273.2
90406.9
88897
87699.7
86769.7
86062.5
85536.2
85152.9
84879.8
84689.4
84559.6
84473
84416.5
84380.3
84357.7
84343.9
84335.6
84330.7
84327.9
84326.3
84325.4
84325
84324.7
84324.6
84324.5
84324.5
84324.5
84324.5
84324.5
84324.5
84324.5
84324.6
84324.6
84324.7
84324.8
84325
84325.4
84326.2
84327.8
84331.3
250676
234070
219000
205288
192780
181344
170867
161252
152418
144296
136832
129980
123709
117994
112817
108165
104026
100387
97231.3
94536.3
92273.3
90407
88897.1
87699.8
86769.9
86062.6
85536.3
85153
84879.9
84689.5
84559.7
84473.1
84416.6
84380.4
84357.8
84344
84335.7
84330.8
84328
84326.4
84325.5
84325
84324.8
84324.7
84324.6
84324.6
84324.6
84324.6
84324.6
84324.6
84324.6
84324.6
84324.7
84324.7
84324.8
84325
84325.2
84325.7
84326.7
84328.8
250676
234070
219000
205288
192780
181344
170867
161252
152418
144296
136832
129980
123709
117994
112817
108165
104026
100387
97231.6
94536.7
92273.7
90407.4
88897.6
87700.3
86770.3
86063.1
85536.8
85153.4
84880.3
84690
84560.2
84473.5
84417
84380.8
84358.2
84344.4
84336.1
84331.2
84328.4
84326.8
84325.9
84325.4
84325.2
84325.1
84325
84325
84325
84325
84325
84325
84325
84325
84325
84325.1
84325.1
84325.2
84325.3
84325.6
84326.2
84327.6
250676
234070
219000
205288
192780
181344
170867
161253
152418
144297
136832
129981
123710
117994
112818
108166
104027
100388
97232.9
94538.2
92275.3
90409.1
88899.3
87702.1
86772.1
86064.9
85538.5
85155.2
84882
84691.6
84561.8
84475.1
84418.5
84382.4
84359.7
84345.8
84337.5
84332.6
84329.8
84328.2
84327.4
84327
84326.8
84326.7
84326.7
84326.7
84326.8
84326.8
84326.8
84326.7
84326.7
84326.7
84326.6
84326.5
84326.5
84326.5
84326.5
84326.7
84327.1
84328
250676
234070
219000
205288
192780
181344
170867
161253
152419
144297
136833
129982
123711
117997
112820
108169
104031
100393
97238
94543.7
92281.2
90415.3
88905.7
87708.6
86778.6
86071.3
85544.8
85161.3
84888
84697.5
84567.5
84480.8
84424
84387.8
84365
84351
84342.6
84337.7
84334.9
84333.4
84332.7
84332.4
84332.4
84332.5
84332.7
84332.9
84333
84333
84333
84332.9
84332.7
84332.5
84332.2
84332
84331.7
84331.5
84331.4
84331.4
84331.6
84332.4
250676
234070
219000
205288
192780
181345
170868
161254
152420
144300
136836
129987
123718
118005
112830
108181
104045
100409
97255.7
94563
92301.7
90436.7
88927.7
87730.7
86800.6
86092.9
85565.9
85181.9
84908.1
84717.1
84586.7
84499.5
84442.4
84405.7
84382.6
84368.3
84359.7
84354.6
84351.9
84350.6
84350.3
84350.6
84351.2
84352
84352.8
84353.4
84353.9
84354.1
84353.9
84353.5
84352.9
84352
84351.1
84350.1
84349.2
84348.4
84347.8
84347.4
84347.5
84348.5
250676
234070
219000
205289
192781
181346
170871
161258
152427
144309
136850
130005
123741
118033
112865
108222
104092
100462
97314.5
94626.3
92368.5
90505.8
88997.8
87800.9
86870
86160.9
85632.2
85246.4
84970.9
84778.4
84646.7
84558.3
84500
84462.1
84437.8
84422.5
84413
84407.6
84405.1
84404.5
84405.5
84407.5
84410.1
84412.9
84415.5
84417.6
84418.9
84419.3
84418.8
84417.4
84415.3
84412.6
84409.6
84406.5
84403.6
84401
84398.8
84397.4
84396.9
84398.7
250676
234070
219001
205290
192784
181352
170881
161274
152451
144344
136897
130066
123818
118128
112978
108353
104241
100628
97494.9
94818.7
92569.8
90712.6
89206.7
88008.8
87074.6
86360.8
85826.8
85435.6
85155.3
84958.6
84823.2
84731.2
84669.4
84627.9
84600.1
84581.6
84569.9
84563.4
84561.3
84562.9
84567.5
84574.1
84582
84590
84597.3
84602.8
84606.1
84606.8
84604.8
84600.4
84594
84586.2
84577.5
84568.5
84559.9
84552.2
84545.8
84541.1
84538.9
84542.6
250676
234071
219003
205296
192796
181373
170917
161332
152536
144461
137052
130263
124060
118417
113315
108737
104670
101098
98001.5
95354.7
93127.1
91282.4
89780.5
88579
87635.3
86908.3
86359.8
85954.8
85662.2
85455.1
85310.4
85209.7
85138.7
85087.4
85049.8
85022.5
85004.2
84994.4
84993
84999.3
85012
85029.4
85049.2
85069
85086.3
85099.1
85105.8
85105.8
85099.3
85087
85069.8
85049.1