/*--------------------------------*- C++ -*----------------------------------*\
  =========                 |
  \\      /  F ield         | OpenFOAM: The Open Source CFD Toolbox
   \\    /   O peration     | Website:  https://openfoam.org
    \\  /    A nd           | Version:  9
     \\/     M anipulation  |
\*---------------------------------------------------------------------------*/
FoamFile
{
    format      ascii;
    class       volScalarField;
    location    "0.003";
    object      k;
}
// * * * * * * * * * * * * * * * * * * * * * * * * * * * * * * * * * * * * * //

dimensions      [0 2 -2 0 0 0 0];

internalField   nonuniform List<scalar> 
36400
(
969.317
934.779
902.712
873.08
845.869
821.047
798.528
778.17
759.786
743.178
728.149
714.517
702.117
690.807
680.475
671.053
662.524
654.929
648.36
642.953
638.879
636.297
635.253
635.572
636.856
638.586
640.259
641.501
642.124
642.066
641.248
639.57
637.069
633.99
630.709
627.649
625.24
623.929
624.195
626.419
630.673
636.445
643.063
649.917
656.287
661.902
667.209
672.328
676.957
680.968
683.166
683.573
684.096
685.84
689.16
693.604
697.543
699.652
700.665
697.88
969.303
934.71
902.517
872.644
845.037
819.64
796.368
775.101
755.697
737.999
721.857
707.13
693.689
681.422
670.239
660.078
650.912
642.747
635.621
629.596
624.743
621.123
618.723
617.404
616.896
616.863
616.977
616.981
616.715
616.092
615.025
613.434
611.331
608.863
606.274
603.846
601.861
600.587
600.26
601.037
602.903
605.586
608.735
612.045
615.195
618.038
620.678
623.114
625.19
626.815
627.627
627.661
627.545
627.714
628.355
629.366
630.286
630.736
630.9
630.46
969.287
934.631
902.294
872.142
844.073
817.996
793.818
771.441
750.759
731.667
714.069
697.874
683.006
669.397
656.992
645.75
635.643
626.656
618.78
612.008
606.328
601.714
598.107
595.391
593.403
591.952
590.85
589.933
589.072
588.168
587.134
585.902
584.459
582.862
581.226
579.692
578.404
577.486
577.029
577.073
577.592
578.478
579.595
580.819
582.035
583.166
584.189
585.068
585.74
586.168
586.289
586.13
585.83
585.513
585.249
585.049
584.849
584.599
584.366
584.399
969.276
934.58
902.147
871.809
843.427
816.882
792.067
768.889
747.26
727.106
708.365
690.985
674.929
660.17
646.688
634.467
623.494
613.752
605.217
597.851
591.604
586.408
582.176
578.8
576.155
574.106
572.522
571.281
570.273
569.402
568.59
567.774
566.925
566.049
565.183
564.381
563.702
563.194
562.89
562.799
562.906
563.17
563.541
563.967
564.402
564.806
565.151
565.414
565.573
565.617
565.544
565.367
565.121
564.837
564.543
564.249
563.959
563.677
563.439
563.435
969.271
934.555
902.076
871.648
843.112
816.33
791.187
767.583
745.436
724.682
705.273
687.181
670.388
654.893
640.699
627.813
616.238
605.964
596.97
589.214
582.631
577.142
572.646
569.032
566.178
563.962
562.266
560.977
559.996
559.233
558.615
558.084
557.603
557.156
556.74
556.368
556.057
555.82
555.668
555.604
555.618
555.697
555.82
555.965
556.113
556.244
556.346
556.406
556.419
556.384
556.304
556.186
556.042
555.88
555.711
555.54
555.372
555.212
555.077
555.055
969.269
934.546
902.049
871.586
842.988
816.111
790.83
767.042
744.665
723.635
703.911
685.469
668.305
652.427
637.852
624.599
612.683
602.102
592.842
584.86
578.094
572.459
567.851
564.152
561.24
558.991
557.285
556.013
555.074
554.385
553.876
553.489
553.186
552.94
552.734
552.564
552.426
552.324
552.256
552.223
552.222
552.245
552.284
552.333
552.38
552.42
552.445
552.453
552.442
552.411
552.364
552.305
552.236
552.162
552.086
552.01
551.936
551.866
551.809
551.797
969.268
934.543
902.041
871.565
842.947
816.036
790.705
766.85
744.385
723.246
703.394
684.806
667.481
651.433
636.684
623.26
611.179
600.448
591.054
582.958
576.1
570.394
565.735
562.003
559.073
556.818
555.117
553.859
552.946
552.292
551.83
551.504
551.272
551.106
550.983
550.893
550.826
550.778
550.747
550.731
550.727
550.733
550.745
550.76
550.775
550.787
550.792
550.791
550.782
550.767
550.746
550.721
550.693
550.663
550.634
550.605
550.577
550.551
550.531
550.529
969.268
934.542
902.038
871.559
842.934
816.013
790.667
766.789
744.294
723.118
703.218
684.576
667.19
651.076
636.257
622.762
610.612
599.816
590.363
582.217
575.317
569.579
564.896
561.15
558.212
555.956
554.258
553.007
552.104
551.465
551.02
550.716
550.51
550.372
550.279
550.216
550.174
550.147
550.13
550.12
550.116
550.117
550.12
550.125
550.129
550.132
550.133
550.132
550.128
550.122
550.114
550.104
550.094
550.084
550.074
550.064
550.055
550.046
550.04
550.042
969.268
934.542
902.037
871.558
842.931
816.006
790.656
766.771
744.267
723.078
703.164
684.503
667.096
650.958
636.114
622.593
610.417
599.596
590.12
581.953
575.037
569.285
564.593
560.84
557.899
555.642
553.945
552.697
551.798
551.164
550.725
550.428
550.231
550.101
550.018
549.965
549.931
549.91
549.898
549.891
549.887
549.886
549.886
549.887
549.888
549.889
549.889
549.889
549.888
549.885
549.883
549.879
549.876
549.873
549.87
549.867
549.864
549.862
549.861
549.864
969.268
934.542
902.037
871.557
842.93
816.005
790.653
766.766
744.259
723.067
703.148
684.482
667.068
650.922
636.07
622.54
610.355
599.525
590.04
581.867
574.944
569.187
564.491
560.736
557.794
555.536
553.84
552.592
551.694
551.062
550.625
550.331
550.136
550.009
549.929
549.878
549.847
549.829
549.818
549.811
549.808
549.806
549.806
549.806
549.806
549.806
549.806
549.806
549.805
549.805
549.804
549.803
549.802
549.801
549.8
549.8
549.799
549.799
549.8
549.803
969.268
934.542
902.037
871.557
842.93
816.004
790.652
766.765
744.257
723.064
703.144
684.476
667.06
650.912
636.057
622.524
610.336
599.504
590.016
581.84
574.916
569.157
564.46
560.703
557.761
555.503
553.807
552.559
551.662
551.03
550.594
550.3
550.106
549.98
549.9
549.851
549.821
549.803
549.792
549.786
549.783
549.781
549.78
549.78
549.78
549.779
549.779
549.779
549.779
549.779
549.779
549.779
549.778
549.778
549.778
549.778
549.779
549.779
549.781
549.785
969.268
934.542
902.037
871.557
842.93
816.004
790.652
766.765
744.257
723.063
703.143
684.474
667.058
650.909
636.053
622.52
610.331
599.498
590.01
581.833
574.907
569.148
564.45
560.694
557.751
555.493
553.797
552.55
551.652
551.02
550.585
550.291
550.097
549.971
549.892
549.843
549.813
549.795
549.784
549.779
549.775
549.773
549.772
549.772
549.772
549.772
549.772
549.772
549.772
549.772
549.772
549.772
549.772
549.772
549.772
549.772
549.773
549.774
549.777
549.783
969.268
934.542
902.037
871.557
842.93
816.004
790.652
766.765
744.257
723.063
703.142
684.474
667.057
650.908
636.053
622.519
610.33
599.496
590.008
581.831
574.905
569.146
564.448
560.691
557.748
555.49
553.794
552.547
551.65
551.018
550.582
550.288
550.094
549.969
549.89
549.84
549.811
549.793
549.782
549.776
549.773
549.771
549.77
549.77
549.77
549.77
549.769
549.769
549.769
549.769
549.77
549.77
549.77
549.77
549.77
549.771
549.772
549.774
549.779
549.789
969.268
934.542
902.037
871.557
842.93
816.004
790.652
766.765
744.257
723.063
703.142
684.474
667.057
650.908
636.052
622.518
610.329
599.496
590.007
581.83
574.905
569.145
564.447
560.691
557.748
555.489
553.793
552.546
551.649
551.017
550.582
550.288
550.094
549.968
549.889
549.84
549.81
549.792
549.782
549.776
549.773
549.771
549.77
549.769
549.769
549.769
549.769
549.769
549.769
549.769
549.769
549.769
549.769
549.77
549.77
549.771
549.773
549.776
549.784
549.799
969.268
934.542
902.037
871.557
842.93
816.004
790.652
766.765
744.257
723.063
703.142
684.474
667.057
650.908
636.052
622.518
610.329
599.496
590.007
581.83
574.904
569.145
564.447
560.69
557.747
555.489
553.793
552.546
551.649
551.017
550.581
550.288
550.094
549.968
549.889
549.84
549.81
549.792
549.782
549.776
549.772
549.771
549.77
549.769
549.769
549.769
549.769
549.769
549.769
549.769
549.769
549.769
549.77
549.77
549.771
549.772
549.775
549.781
549.792
549.818
969.268
934.542
902.037
871.557
842.93
816.004
790.652
766.765
744.257
723.063
703.142
684.474
667.057
650.908
636.052
622.518
610.329
599.496
590.007
581.83
574.904
569.145
564.447
560.69
557.747
555.489
553.793
552.546
551.649
551.017
550.581
550.288
550.094
549.968
549.889
549.84
549.81
549.792
549.782
549.776
549.772
549.771
549.77
549.769
549.769
549.769
549.769
549.769
549.769
549.769
549.769
549.769
549.77
549.77
549.771
549.774
549.778
549.787
549.806
549.846
969.268
934.542
902.037
871.557
842.93
816.004
790.652
766.765
744.257
723.063
703.142
684.474
667.057
650.908
636.052
622.518
610.329
599.496
590.007
581.83
574.904
569.145
564.447
560.69
557.747
555.489
553.793
552.546
551.649
551.017
550.581
550.288
550.094
549.968
549.889
549.84
549.81
549.792
549.782
549.776
549.772
549.771
549.77
549.769
549.769
549.769
549.769
549.769
549.769
549.769
549.769
549.77
549.77
549.771
549.773
549.777
549.784
549.799
549.829
549.892
969.268
934.542
902.037
871.557
842.93
816.004
790.652
766.765
744.257
723.063
703.142
684.474
667.057
650.908
636.052
622.518
610.329
599.496
590.007
581.83
574.904
569.145
564.447
560.69
557.747
555.489
553.793
552.546
551.649
551.017
550.581
550.288
550.094
549.968
549.889
549.84
549.81
549.792
549.782
549.776
549.772
549.771
549.77
549.769
549.769
549.769
549.769
549.769
549.769
549.769
549.77
549.77
549.771
549.773
549.775
549.781
549.792
549.815
549.862
549.96
969.268
934.542
902.037
871.557
842.93
816.004
790.652
766.765
744.257
723.063
703.142
684.474
667.057
650.908
636.052
622.518
610.329
599.496
590.007
581.83
574.904
569.145
564.447
560.69
557.747
555.489
553.793
552.546
551.649
551.017
550.581
550.288
550.094
549.968
549.889
549.84
549.81
549.792
549.782
549.776
549.772
549.771
549.77
549.769
549.769
549.769
549.769
549.769
549.769
549.77
549.77
549.771
549.772
549.774
549.779
549.787
549.805
549.84
549.91
550.058
969.268
934.542
902.037
871.557
842.93
816.004
790.652
766.765
744.257
723.063
703.142
684.474
667.057
650.908
636.052
622.518
610.329
599.496
590.007
581.83
574.904
569.145
564.447
560.69
557.747
555.489
553.793
552.546
551.649
551.017
550.581
550.288
550.094
549.968
549.889
549.84
549.81
549.792
549.782
549.776
549.772
549.771
549.77
549.769
549.769
549.769
549.769
549.769
549.77
549.77
549.771
549.772
549.774
549.777
549.783
549.796
549.821
549.873
549.978
550.197
969.268
934.542
902.037
871.557
842.93
816.004
790.652
766.765
744.257
723.063
703.142
684.474
667.057
650.908
636.052
622.518
610.329
599.496
590.007
581.83
574.904
569.145
564.447
560.69
557.747
555.489
553.793
552.546
551.649
551.017
550.581
550.288
550.094
549.968
549.889
549.84
549.81
549.792
549.782
549.776
549.773
549.771
549.77
549.769
549.769
549.769
549.769
549.77
549.77
549.771
549.772
549.773
549.775
549.78
549.789
549.807
549.843
549.918
550.069
550.384
969.268
934.542
902.037
871.557
842.93
816.004
790.652
766.765
744.257
723.063
703.142
684.474
667.057
650.908
636.052
622.518
610.329
599.496
590.007
581.83
574.904
569.145
564.447
560.69
557.747
555.489
553.793
552.546
551.649
551.017
550.581
550.288
550.094
549.968
549.889
549.84
549.81
549.792
549.782
549.776
549.773
549.771
549.77
549.769
549.769
549.769
549.77
549.77
549.77
549.771
549.773
549.774
549.777
549.784
549.797
549.823
549.876
549.984
550.201
550.654
969.268
934.542
902.037
871.557
842.93
816.004
790.652
766.765
744.257
723.063
703.142
684.474
667.057
650.908
636.052
622.518
610.329
599.496
590.007
581.83
574.904
569.145
564.447
560.69
557.747
555.489
553.793
552.546
551.649
551.017
550.581
550.288
550.094
549.968
549.889
549.84
549.81
549.792
549.782
549.776
549.773
549.771
549.77
549.769
549.769
549.769
549.77
549.77
549.771
549.772
549.773
549.776
549.78
549.789
549.807
549.844
549.917
550.066
550.368
550.999
969.268
934.542
902.037
871.557
842.93
816.004
790.652
766.765
744.257
723.063
703.142
684.474
667.057
650.908
636.052
622.518
610.329
599.496
590.007
581.83
574.904
569.145
564.447
560.69
557.747
555.489
553.793
552.546
551.649
551.017
550.581
550.288
550.094
549.968
549.889
549.84
549.81
549.792
549.782
549.776
549.773
549.771
549.77
549.77
549.769
549.77
549.77
549.77
549.771
549.773
549.774
549.777
549.783
549.795
549.818
549.867
549.965
550.165
550.575
551.434
969.268
934.542
902.037
871.557
842.93
816.004
790.652
766.765
744.257
723.063
703.142
684.474
667.057
650.908
636.052
622.518
610.329
599.496
590.007
581.83
574.904
569.145
564.447
560.69
557.747
555.489
553.793
552.546
551.649
551.017
550.581
550.288
550.094
549.968
549.889
549.84
549.81
549.792
549.782
549.776
549.773
549.771
549.77
549.77
549.77
549.77
549.77
549.771
549.772
549.773
549.776
549.779
549.787
549.803
549.835
549.9
550.033
550.301
550.846
551.998
969.268
934.542
902.037
871.557
842.93
816.004
790.652
766.765
744.257
723.063
703.142
684.474
667.057
650.908
636.052
622.518
610.329
599.496
590.007
581.83
574.904
569.145
564.447
560.69
557.747
555.489
553.793
552.546
551.649
551.017
550.581
550.288
550.094
549.968
549.889
549.84
549.81
549.792
549.782
549.776
549.773
549.771
549.77
549.77
549.77
549.77
549.77
549.771
549.772
549.774
549.777
549.782
549.792
549.812
549.852
549.936
550.107
550.455
551.163
552.677
969.268
934.542
902.037
871.557
842.93
816.004
790.652
766.765
744.257
723.063
703.142
684.474
667.057
650.908
636.052
622.518
610.329
599.496
590.007
581.83
574.904
569.145
564.447
560.69
557.747
555.489
553.793
552.546
551.649
551.017
550.581
550.288
550.094
549.968
549.889
549.84
549.81
549.792
549.782
549.776
549.773
549.771
549.77
549.77
549.77
549.77
549.771
549.772
549.773
549.775
549.778
549.784
549.797
549.823
549.874
549.979
550.193
550.631
551.535
553.488
969.268
934.542
902.037
871.557
842.93
816.004
790.652
766.765
744.257
723.063
703.142
684.474
667.057
650.908
636.052
622.518
610.329
599.496
590.007
581.83
574.904
569.145
564.447
560.69
557.747
555.489
553.793
552.546
551.649
551.017
550.581
550.288
550.094
549.968
549.889
549.84
549.81
549.792
549.782
549.776
549.773
549.771
549.77
549.77
549.77
549.77
549.771
549.772
549.774
549.776
549.78
549.787
549.803
549.834
549.898
550.027
550.29
550.827
551.939
554.4
969.268
934.542
902.037
871.557
842.93
816.004
790.652
766.765
744.257
723.063
703.142
684.474
667.057
650.908
636.052
622.518
610.329
599.496
590.007
581.83
574.904
569.145
564.447
560.69
557.747
555.489
553.793
552.546
551.649
551.017
550.581
550.288
550.094
549.968
549.889
549.84
549.81
549.792
549.782
549.776
549.773
549.771
549.77
549.77
549.77
549.77
549.771
549.772
549.774
549.777
549.781
549.79
549.808
549.846
549.921
550.076
550.391
551.035
552.376
555.404
969.268
934.542
902.037
871.557
842.93
816.004
790.652
766.765
744.257
723.063
703.142
684.474
667.057
650.908
636.052
622.518
610.329
599.496
590.007
581.83
574.904
569.145
564.447
560.69
557.747
555.489
553.793
552.546
551.649
551.017
550.581
550.288
550.094
549.968
549.889
549.84
549.81
549.792
549.782
549.776
549.773
549.771
549.77
549.77
549.77
549.771
549.771
549.773
549.775
549.777
549.783
549.793
549.815
549.859
549.947
550.127
550.497
551.256
552.839
556.466
969.268
934.542
902.037
871.557
842.93
816.004
790.652
766.765
744.257
723.063
703.142
684.474
667.057
650.908
636.052
622.518
610.329
599.496
590.007
581.83
574.904
569.145
564.447
560.69
557.747
555.489
553.793
552.546
551.649
551.017
550.581
550.288
550.094
549.968
549.889
549.84
549.81
549.792
549.782
549.776
549.773
549.771
549.77
549.77
549.77
549.771
549.772
549.773
549.775
549.778
549.784
549.796
549.82
549.868
549.968
550.174
550.595
551.458
553.275
557.507
969.268
934.542
902.037
871.557
842.93
816.004
790.652
766.765
744.257
723.063
703.142
684.474
667.057
650.908
636.052
622.518
610.329
599.496
590.007
581.83
574.904
569.145
564.447
560.69
557.747
555.489
553.793
552.546
551.649
551.017
550.581
550.288
550.094
549.968
549.889
549.84
549.81
549.792
549.782
549.776
549.773
549.771
549.77
549.77
549.77
549.771
549.772
549.773
549.775
549.778
549.785
549.799
549.826
549.881
549.993
550.221
550.687
551.645
553.678
558.508
969.268
934.542
902.037
871.557
842.93
816.004
790.652
766.765
744.257
723.063
703.142
684.474
667.057
650.908
636.052
622.518
610.329
599.496
590.007
581.83
574.904
569.145
564.447
560.69
557.747
555.489
553.793
552.546
551.649
551.017
550.581
550.288
550.094
549.968
549.889
549.84
549.81
549.792
549.782
549.776
549.773
549.771
549.77
549.77
549.77
549.771
549.772
549.773
549.775
549.779
549.786
549.8
549.829
549.888
550.008
550.253
550.755
551.799
554.016
559.333
969.268
934.542
902.037
871.557
842.93
816.004
790.652
766.765
744.257
723.063
703.142
684.474
667.057
650.908
636.052
622.518
610.329
599.496
590.007
581.83
574.904
569.145
564.447
560.69
557.747
555.489
553.793
552.546
551.649
551.017
550.581
550.288
550.094
549.968
549.889
549.84
549.81
549.792
549.782
549.776
549.773
549.771
549.77
549.77
549.77
549.771
549.772
549.773
549.775
549.779
549.787
549.802
549.832
549.895
550.023
550.282
550.811
551.907
554.24
559.885
969.268
934.542
902.037
871.557
842.93
816.004
790.652
766.765
744.257
723.063
703.142
684.474
667.057
650.908
636.052
622.518
610.329
599.496
590.007
581.83
574.904
569.145
564.447
560.69
557.747
555.489
553.793
552.546
551.649
551.017
550.581
550.288
550.094
549.968
549.889
549.84
549.81
549.792
549.782
549.776
549.773
549.771
549.77
549.77
549.77
549.771
549.772
549.773
549.775
549.779
549.787
549.802
549.833
549.897
550.027
550.291
550.832
551.95
554.334
560.146
969.268
934.542
902.037
871.557
842.93
816.004
790.652
766.765
744.257
723.063
703.142
684.474
667.057
650.908
636.052
622.518
610.329
599.496
590.007
581.83
574.904
569.145
564.447
560.69
557.747
555.489
553.793
552.546
551.649
551.017
550.581
550.288
550.094
549.968
549.889
549.84
549.81
549.792
549.782
549.776
549.773
549.771
549.77
549.77
549.77
549.771
549.772
549.773
549.775
549.779
549.787
549.802
549.834
549.898
550.028
550.293
550.834
551.954
554.343
560.142
969.268
934.542
902.037
871.557
842.93
816.004
790.652
766.765
744.257
723.063
703.142
684.474
667.057
650.908
636.052
622.518
610.329
599.496
590.007
581.83
574.904
569.145
564.447
560.69
557.747
555.489
553.793
552.546
551.649
551.017
550.581
550.288
550.094
549.968
549.889
549.84
549.81
549.792
549.782
549.776
549.773
549.771
549.77
549.77
549.77
549.771
549.772
549.773
549.776
549.779
549.787
549.802
549.833
549.896
550.023
550.282
550.811
551.907
554.247
559.904
969.268
934.542
902.037
871.557
842.93
816.004
790.652
766.765
744.257
723.063
703.142
684.474
667.057
650.908
636.052
622.518
610.329
599.496
590.007
581.83
574.904
569.145
564.447
560.69
557.747
555.489
553.793
552.546
551.649
551.017
550.581
550.288
550.094
549.968
549.889
549.84
549.81
549.792
549.782
549.776
549.773
549.771
549.77
549.77
549.77
549.771
549.772
549.773
549.775
549.779
549.786
549.801
549.831
549.891
550.012
550.259
550.764
551.805
554.021
559.349
969.268
934.542
902.037
871.557
842.93
816.004
790.652
766.765
744.257
723.063
703.142
684.474
667.057
650.908
636.052
622.518
610.329
599.496
590.007
581.83
574.904
569.145
564.447
560.69
557.747
555.489
553.793
552.546
551.649
551.017
550.581
550.288
550.094
549.968
549.889
549.84
549.81
549.792
549.782
549.776
549.773
549.771
549.77
549.77
549.77
549.771
549.772
549.773
549.776
549.779
549.786
549.799
549.825
549.879
549.99
550.217
550.68
551.639
553.682
558.499
969.268
934.542
902.037
871.557
842.93
816.004
790.652
766.765
744.257
723.063
703.142
684.474
667.057
650.908
636.052
622.518
610.329
599.496
590.007
581.83
574.904
569.145
564.447
560.69
557.747
555.489
553.793
552.546
551.649
551.017
550.581
550.288
550.094
549.968
549.889
549.84
549.81
549.792
549.782
549.776
549.773
549.771
549.77
549.77
549.77
549.771
549.772
549.774
549.776
549.78
549.786
549.798
549.823
549.874
549.976
550.183
550.606
551.478
553.308
557.559
969.268
934.542
902.037
871.557
842.93
816.004
790.652
766.765
744.257
723.063
703.142
684.474
667.057
650.908
636.052
622.518
610.329
599.496
590.007
581.83
574.904
569.145
564.447
560.69
557.747
555.489
553.793
552.546
551.649
551.017
550.581
550.288
550.094
549.968
549.889
549.84
549.81
549.792
549.782
549.776
549.773
549.771
549.77
549.77
549.77
549.771
549.772
549.773
549.775
549.779
549.784
549.795
549.818
549.863
549.953
550.136
550.506
551.264
552.852
556.489
969.268
934.542
902.037
871.557
842.93
816.004
790.652
766.765
744.257
723.063
703.142
684.474
667.057
650.908
636.052
622.518
610.329
599.496
590.007
581.83
574.904
569.145
564.447
560.69
557.747
555.489
553.793
552.546
551.649
551.017
550.581
550.288
550.094
549.968
549.889
549.84
549.81
549.792
549.782
549.776
549.773
549.771
549.77
549.77
549.77
549.771
549.772
549.773
549.775
549.779
549.785
549.795
549.813
549.847
549.917
550.065
550.373
551.01
552.334
555.333
969.268
934.542
902.037
871.557
842.93
816.004
790.652
766.765
744.257
723.063
703.142
684.474
667.057
650.908
636.052
622.518
610.329
599.496
590.007
581.83
574.904
569.145
564.447
560.69
557.747
555.489
553.793
552.546
551.649
551.017
550.581
550.288
550.094
549.968
549.889
549.84
549.81
549.792
549.782
549.776
549.773
549.771
549.77
549.77
549.77
549.77
549.771
549.772
549.774
549.776
549.781
549.789
549.805
549.837
549.902
550.032
550.295
550.834
551.951
554.403
969.268
934.542
902.037
871.557
842.93
816.004
790.652
766.765
744.257
723.063
703.142
684.474
667.057
650.908
636.052
622.518
610.329
599.496
590.007
581.83
574.904
569.145
564.447
560.69
557.747
555.489
553.793
552.546
551.649
551.017
550.581
550.288
550.094
549.968
549.889
549.84
549.81
549.792
549.782
549.776
549.773
549.771
549.77
549.77
549.77
549.77
549.771
549.772
549.774
549.776
549.78
549.787
549.799
549.825
549.878
549.984
550.201
550.643
551.547
553.499
969.268
934.542
902.037
871.557
842.93
816.004
790.652
766.765
744.257
723.063
703.142
684.474
667.057
650.908
636.052
622.518
610.329
599.496
590.007
581.83
574.904
569.145
564.447
560.69
557.747
555.489
553.793
552.546
551.649
551.017
550.581
550.288
550.094
549.968
549.889
549.84
549.81
549.792
549.782
549.776
549.773
549.771
549.77
549.77
549.77
549.77
549.77
549.771
549.772
549.774
549.777
549.782
549.792
549.812
549.853
549.937
550.108
550.457
551.171
552.691
969.268
934.542
902.037
871.557
842.93
816.004
790.652
766.765
744.257
723.063
703.142
684.474
667.057
650.908
636.052
622.518
610.329
599.496
590.007
581.83
574.904
569.145
564.447
560.69
557.747
555.489
553.793
552.546
551.649
551.017
550.581
550.288
550.094
549.968
549.889
549.84
549.81
549.792
549.782
549.776
549.773
549.771
549.77
549.77
549.769
549.77
549.77
549.771
549.771
549.773
549.775
549.779
549.787
549.803
549.835
549.9
550.032
550.301
550.849
552.006
969.268
934.542
902.037
871.557
842.93
816.004
790.652
766.765
744.257
723.063
703.142
684.474
667.057
650.908
636.052
622.518
610.329
599.496
590.007
581.83
574.904
569.145
564.447
560.69
557.747
555.489
553.793
552.546
551.649
551.017
550.581
550.288
550.094
549.968
549.889
549.84
549.81
549.792
549.782
549.776
549.773
549.771
549.77
549.769
549.769
549.769
549.77
549.77
549.771
549.772
549.773
549.776
549.782
549.794
549.818
549.867
549.966
550.169
550.582
551.444
969.268
934.542
902.037
871.557
842.93
816.004
790.652
766.765
744.257
723.063
703.142
684.474
667.057
650.908
636.052
622.518
610.329
599.496
590.007
581.83
574.904
569.145
564.447
560.69
557.747
555.489
553.793
552.546
551.649
551.017
550.581
550.288
550.094
549.968
549.889
549.84
549.81
549.792
549.782
549.776
549.773
549.771
549.77
549.769
549.769
549.769
549.769
549.77
549.77
549.771
549.772
549.774
549.779
549.787
549.805
549.841
549.915
550.064
550.367
550.996
969.268
934.542
902.037
871.557
842.93
816.004
790.652
766.765
744.257
723.063
703.142
684.474
667.057
650.908
636.052
622.518
610.329
599.496
590.007
581.83
574.904
569.145
564.447
560.69
557.747
555.489
553.793
552.546
551.649
551.017
550.581
550.288
550.094
549.968
549.889
549.84
549.81
549.792
549.782
549.776
549.773
549.771
549.77
549.769
549.769
549.769
549.769
549.77
549.77
549.77
549.771
549.773
549.776
549.782
549.795
549.821
549.874
549.981
550.197
550.646
969.268
934.542
902.037
871.557
842.93
816.004
790.652
766.765
744.257
723.063
703.142
684.474
667.057
650.908
636.052
622.518
610.329
599.496
590.007
581.83
574.904
569.145
564.447
560.69
557.747
555.489
553.793
552.546
551.649
551.017
550.581
550.288
550.094
549.968
549.889
549.84
549.81
549.792
549.782
549.776
549.772
549.771
549.77
549.769
549.769
549.769
549.769
549.769
549.77
549.77
549.771
549.772
549.774
549.778
549.787
549.806
549.843
549.917
550.068
550.382
969.268
934.542
902.037
871.557
842.93
816.004
790.652
766.765
744.257
723.063
703.142
684.474
667.057
650.908
636.052
622.518
610.329
599.496
590.007
581.83
574.904
569.145
564.447
560.69
557.747
555.489
553.793
552.546
551.649
551.017
550.581
550.288
550.094
549.968
549.889
549.84
549.81
549.792
549.782
549.776
549.772
549.771
549.77
549.769
549.769
549.769
549.769
549.769
549.769
549.77
549.77
549.771
549.773
549.776
549.782
549.794
549.819
549.87
549.974
550.19
969.268
934.542
902.037
871.557
842.93
816.004
790.652
766.765
744.257
723.063
703.142
684.474
667.057
650.908
636.052
622.518
610.329
599.496
590.007
581.83
574.904
569.145
564.447
560.69
557.747
555.489
553.793
552.546
551.649
551.017
550.581
550.288
550.094
549.968
549.889
549.84
549.81
549.792
549.782
549.776
549.772
549.771
549.77
549.769
549.769
549.769
549.769
549.769
549.769
549.77
549.77
549.771
549.772
549.774
549.778
549.786
549.803
549.838
549.907
550.053
969.268
934.542
902.037
871.557
842.93
816.004
790.652
766.765
744.257
723.063
703.142
684.474
667.057
650.908
636.052
622.518
610.329
599.496
590.007
581.83
574.904
569.145
564.447
560.69
557.747
555.489
553.793
552.546
551.649
551.017
550.581
550.288
550.094
549.968
549.889
549.84
549.81
549.792
549.782
549.776
549.772
549.771
549.77
549.769
549.769
549.769
549.769
549.769
549.769
549.769
549.77
549.77
549.771
549.772
549.775
549.781
549.792
549.815
549.861
549.958
969.268
934.542
902.037
871.557
842.93
816.004
790.652
766.765
744.257
723.063
703.142
684.474
667.057
650.908
636.052
622.518
610.329
599.496
590.007
581.83
574.904
569.145
564.447
560.69
557.747
555.489
553.793
552.546
551.649
551.017
550.581
550.288
550.094
549.968
549.889
549.84
549.81
549.792
549.782
549.776
549.772
549.771
549.77
549.769
549.769
549.769
549.769
549.769
549.769
549.769
549.77
549.77
549.77
549.771
549.773
549.777
549.784
549.799
549.829
549.892
969.268
934.542
902.037
871.557
842.93
816.004
790.652
766.765
744.257
723.063
703.142
684.474
667.057
650.908
636.052
622.518
610.329
599.496
590.007
581.83
574.904
569.145
564.447
560.69
557.747
555.489
553.793
552.546
551.649
551.017
550.581
550.288
550.094
549.968
549.889
549.84
549.81
549.792
549.782
549.776
549.772
549.771
549.77
549.769
549.769
549.769
549.769
549.769
549.769
549.769
549.769
549.77
549.77
549.771
549.772
549.774
549.779
549.788
549.807
549.847
969.268
934.542
902.037
871.557
842.93
816.004
790.652
766.765
744.257
723.063
703.142
684.474
667.057
650.908
636.052
622.518
610.329
599.496
590.007
581.83
574.904
569.145
564.447
560.69
557.747
555.489
553.793
552.546
551.649
551.017
550.581
550.288
550.094
549.968
549.889
549.84
549.81
549.792
549.782
549.776
549.773
549.771
549.77
549.769
549.769
549.769
549.769
549.769
549.769
549.769
549.769
549.769
549.77
549.77
549.771
549.772
549.775
549.781
549.792
549.817
969.268
934.542
902.037
871.557
842.93
816.004
790.652
766.765
744.257
723.063
703.142
684.474
667.057
650.908
636.052
622.518
610.329
599.496
590.007
581.83
574.905
569.145
564.447
560.691
557.747
555.489
553.793
552.546
551.649
551.017
550.582
550.288
550.094
549.968
549.889
549.84
549.81
549.792
549.782
549.776
549.773
549.771
549.77
549.769
549.769
549.769
549.769
549.769
549.769
549.769
549.769
549.769
549.77
549.77
549.77
549.771
549.773
549.777
549.784
549.8
969.268
934.542
902.037
871.557
842.93
816.004
790.652
766.765
744.257
723.063
703.142
684.474
667.057
650.908
636.053
622.519
610.33
599.496
590.008
581.831
574.905
569.146
564.448
560.691
557.748
555.49
553.794
552.547
551.65
551.018
550.582
550.288
550.094
549.969
549.89
549.84
549.811
549.793
549.782
549.777
549.773
549.771
549.77
549.77
549.77
549.77
549.77
549.77
549.77
549.77
549.77
549.77
549.77
549.77
549.771
549.771
549.772
549.775
549.779
549.789
969.268
934.542
902.037
871.557
842.93
816.004
790.652
766.765
744.257
723.063
703.143
684.474
667.058
650.909
636.053
622.52
610.331
599.498
590.01
581.833
574.907
569.148
564.45
560.694
557.751
555.493
553.797
552.549
551.652
551.02
550.585
550.291
550.097
549.971
549.892
549.843
549.813
549.795
549.785
549.779
549.775
549.774
549.773
549.772
549.772
549.772
549.772
549.772
549.772
549.772
549.772
549.772
549.772
549.772
549.772
549.773
549.773
549.774
549.777
549.784
969.268
934.542
902.037
871.557
842.93
816.004
790.652
766.765
744.257
723.064
703.144
684.476
667.06
650.912
636.057
622.524
610.336
599.504
590.016
581.84
574.915
569.157
564.459
560.703
557.76
555.502
553.806
552.558
551.661
551.029
550.593
550.299
550.105
549.979
549.899
549.85
549.82
549.802
549.792
549.786
549.783
549.781
549.781
549.781
549.781
549.781
549.781
549.781
549.781
549.781
549.781
549.78
549.78
549.78
549.78
549.779
549.78
549.78
549.782
549.786
969.268
934.542
902.037
871.557
842.93
816.005
790.653
766.766
744.259
723.067
703.148
684.482
667.068
650.922
636.07
622.54
610.355
599.525
590.04
581.866
574.943
569.186
564.49
560.734
557.791
555.532
553.835
552.588
551.689
551.057
550.62
550.326
550.131
550.005
549.925
549.875
549.845
549.827
549.816
549.811
549.808
549.807
549.807
549.808
549.809
549.81
549.81
549.811
549.811
549.81
549.809
549.808
549.807
549.806
549.804
549.803
549.803
549.803
549.804
549.807
969.268
934.542
902.037
871.558
842.931
816.006
790.656
766.771
744.267
723.079
703.164
684.504
667.097
650.958
636.115
622.593
610.417
599.596
590.119
581.952
575.034
569.28
564.586
560.831
557.887
555.628
553.929
552.679
551.779
551.144
550.706
550.409
550.213
550.085
550.004
549.952
549.921
549.903
549.892
549.888
549.887
549.888
549.891
549.895
549.898
549.901
549.903
549.904
549.903
549.901
549.898
549.895
549.891
549.887
549.882
549.879
549.876
549.875
549.875
549.879
969.268
934.542
902.038
871.559
842.934
816.013
790.667
766.79
744.295
723.119
703.22
684.578
667.192
651.078
636.259