/*--------------------------------*- C++ -*----------------------------------*\
  =========                 |
  \\      /  F ield         | OpenFOAM: The Open Source CFD Toolbox
   \\    /   O peration     | Website:  https://openfoam.org
    \\  /    A nd           | Version:  9
     \\/     M anipulation  |
\*---------------------------------------------------------------------------*/
FoamFile
{
    format      ascii;
    class       volScalarField;
    location    "0.003";
    object      nut;
}
// * * * * * * * * * * * * * * * * * * * * * * * * * * * * * * * * * * * * * //

dimensions      [0 2 -1 0 0 0 0];

internalField   nonuniform List<scalar> 
36400
(
0.337313
0.335866
0.33453
0.33332
0.332239
0.33128
0.330422
0.329639
0.328903
0.328193
0.327493
0.326795
0.326098
0.325407
0.324734
0.324091
0.323489
0.322937
0.322431
0.321962
0.321508
0.321042
0.320542
0.320019
0.319509
0.31905
0.318667
0.318362
0.318116
0.317904
0.317714
0.317556
0.317443
0.317372
0.317335
0.317321
0.31731
0.317275
0.317171
0.316965
0.316659
0.316343
0.31609
0.315916
0.315848
0.315868
0.315896
0.315915
0.315942
0.315928
0.31593
0.315959
0.315948
0.315907
0.315853
0.315794
0.315758
0.315745
0.315616
0.315078
0.33731
0.335853
0.334497
0.333254
0.332131
0.331127
0.330228
0.329416
0.328671
0.327972
0.327307
0.326664
0.326039
0.325435
0.324857
0.324314
0.323814
0.323361
0.322954
0.322588
0.322249
0.321917
0.321577
0.321229
0.320888
0.320574
0.320304
0.320082
0.319904
0.319759
0.319643
0.319566
0.319535
0.319545
0.319586
0.319643
0.319695
0.319721
0.319696
0.319604
0.319444
0.319255
0.319073
0.318911
0.318786
0.318697
0.318611
0.318521
0.318438
0.318352
0.318296
0.318276
0.318245
0.318184
0.318089
0.317965
0.317846
0.317754
0.317635
0.31737
0.337306
0.335835
0.334451
0.333163
0.331975
0.330891
0.329907
0.329018
0.328212
0.327481
0.326815
0.326208
0.325656
0.325158
0.324712
0.324321
0.323983
0.323696
0.323455
0.323251
0.323075
0.322912
0.322755
0.322596
0.32244
0.322291
0.322157
0.322041
0.321945
0.321868
0.321814
0.321787
0.321789
0.321818
0.321866
0.321922
0.321972
0.322007
0.322017
0.321998
0.321951
0.321886
0.321815
0.321744
0.321677
0.321617
0.321557
0.321499
0.321447
0.321401
0.321369
0.321353
0.321339
0.32132
0.321292
0.321256
0.321219
0.321187
0.321144
0.321014
0.337304
0.335822
0.334417
0.33309
0.331844
0.330684
0.329611
0.328626
0.327728
0.326919
0.326199
0.325568
0.325027
0.324577
0.324216
0.323938
0.323735
0.323597
0.32351
0.323458
0.323427
0.323405
0.323381
0.32335
0.323311
0.323265
0.323215
0.323164
0.323115
0.323071
0.323034
0.323009
0.322995
0.322992
0.322997
0.323006
0.323016
0.323023
0.323025
0.323021
0.323011
0.322999
0.322985
0.322971
0.322956
0.322942
0.322928
0.322914
0.322901
0.32289
0.32288
0.322871
0.322864
0.322855
0.322846
0.322836
0.322826
0.322817
0.322805
0.322756
0.337302
0.335815
0.334398
0.333048
0.331768
0.330558
0.329422
0.328363
0.327386
0.326498
0.325705
0.325017
0.324438
0.323975
0.323625
0.323385
0.323242
0.323181
0.323179
0.323217
0.323273
0.323331
0.32338
0.323412
0.323426
0.323424
0.323409
0.323384
0.323353
0.323321
0.323289
0.32326
0.323234
0.323212
0.323193
0.323178
0.323166
0.323157
0.32315
0.323145
0.323143
0.323143
0.323144
0.323146
0.323148
0.32315
0.323151
0.32315
0.323148
0.323143
0.323137
0.323129
0.323119
0.323109
0.323097
0.323086
0.323075
0.323065
0.323055
0.323039
0.337301
0.335812
0.334389
0.33303
0.331733
0.330498
0.329329
0.328228
0.327203
0.326261
0.325415
0.324675
0.324051
0.323552
0.32318
0.322932
0.322794
0.322749
0.322775
0.322844
0.322934
0.323025
0.323104
0.323161
0.323197
0.323211
0.323209
0.323194
0.323173
0.323148
0.323122
0.323096
0.323072
0.32305
0.323031
0.323015
0.323001
0.32299
0.322983
0.322979
0.322978
0.322979
0.322981
0.322985
0.322989
0.322991
0.322993
0.322993
0.322991
0.322988
0.322982
0.322975
0.322966
0.322957
0.322948
0.322939
0.322929
0.322921
0.322914
0.322908
0.337301
0.335811
0.334386
0.333023
0.33172
0.330475
0.329291
0.328171
0.327122
0.326154
0.325278
0.324506
0.323852
0.323325
0.322929
0.322661
0.322511
0.322461
0.322485
0.322559
0.322656
0.322755
0.322842
0.322907
0.32295
0.32297
0.322973
0.322964
0.322947
0.322927
0.322906
0.322886
0.322868
0.322852
0.322838
0.322826
0.322817
0.322809
0.322804
0.322802
0.322801
0.322801
0.322803
0.322805
0.322807
0.322808
0.322809
0.322809
0.322807
0.322804
0.322801
0.322796
0.322791
0.322786
0.32278
0.322775
0.322769
0.322765
0.322761
0.322759
0.337301
0.335811
0.334385
0.333021
0.331715
0.330467
0.329278
0.328151
0.327092
0.326112
0.325222
0.324436
0.323766
0.323223
0.322812
0.322532
0.32237
0.322311
0.32233
0.322399
0.322495
0.322594
0.322681
0.322748
0.322792
0.322814
0.32282
0.322813
0.322799
0.322781
0.322763
0.322747
0.322732
0.32272
0.32271
0.322702
0.322696
0.322692
0.322689
0.322687
0.322686
0.322686
0.322687
0.322688
0.322689
0.322689
0.32269
0.322689
0.322688
0.322687
0.322685
0.322683
0.32268
0.322678
0.322675
0.322673
0.32267
0.322668
0.322667
0.322667
0.337301
0.335811
0.334385
0.33302
0.331714
0.330464
0.329273
0.328144
0.327082
0.326098
0.325203
0.32441
0.323734
0.323184
0.322766
0.322478
0.322311
0.322246
0.32226
0.322326
0.322419
0.322517
0.322603
0.32267
0.322714
0.322737
0.322743
0.322737
0.322724
0.322707
0.322691
0.322676
0.322664
0.322654
0.322646
0.32264
0.322635
0.322632
0.32263
0.322629
0.322628
0.322628
0.322628
0.322629
0.322629
0.322629
0.322629
0.322629
0.322629
0.322628
0.322627
0.322626
0.322625
0.322624
0.322623
0.322622
0.322621
0.322621
0.322621
0.322621
0.337301
0.335811
0.334385
0.33302
0.331713
0.330464
0.329272
0.328142
0.327079
0.326093
0.325196
0.324402
0.323723
0.32317
0.322749
0.322459
0.322289
0.322221
0.322233
0.322297
0.322389
0.322485
0.322571
0.322637
0.322681
0.322704
0.32271
0.322704
0.322692
0.322676
0.32266
0.322646
0.322634
0.322625
0.322618
0.322613
0.322609
0.322607
0.322605
0.322604
0.322603
0.322603
0.322603
0.322603
0.322603
0.322603
0.322603
0.322603
0.322603
0.322603
0.322602
0.322602
0.322602
0.322601
0.322601
0.322601
0.322601
0.322601
0.322601
0.322602
0.337301
0.335811
0.334385
0.33302
0.331713
0.330464
0.329272
0.328141
0.327078
0.326092
0.325195
0.324399
0.323719
0.323166
0.322744
0.322452
0.322281
0.322213
0.322224
0.322287
0.322378
0.322474
0.322559
0.322625
0.322669
0.322692
0.322698
0.322692
0.32268
0.322664
0.322649
0.322635
0.322623
0.322614
0.322607
0.322603
0.322599
0.322597
0.322595
0.322594
0.322594
0.322594
0.322593
0.322593
0.322593
0.322593
0.322593
0.322593
0.322593
0.322593
0.322593
0.322593
0.322593
0.322593
0.322593
0.322593
0.322593
0.322593
0.322594
0.322595
0.337301
0.335811
0.334385
0.33302
0.331713
0.330464
0.329272
0.328141
0.327078
0.326092
0.325194
0.324398
0.323718
0.323164
0.322742
0.32245
0.322279
0.32221
0.322221
0.322284
0.322374
0.32247
0.322555
0.322621
0.322665
0.322688
0.322694
0.322688
0.322676
0.32266
0.322645
0.322631
0.32262
0.322611
0.322604
0.322599
0.322596
0.322594
0.322592
0.322591
0.322591
0.32259
0.32259
0.32259
0.32259
0.32259
0.32259
0.32259
0.32259
0.32259
0.32259
0.32259
0.32259
0.32259
0.32259
0.32259
0.32259
0.322591
0.322592
0.322594
0.337301
0.335811
0.334385
0.33302
0.331713
0.330464
0.329272
0.328141
0.327078
0.326092
0.325194
0.324398
0.323718
0.323164
0.322742
0.32245
0.322278
0.322209
0.32222
0.322283
0.322373
0.322469
0.322554
0.32262
0.322664
0.322686
0.322692
0.322687
0.322674
0.322659
0.322644
0.32263
0.322619
0.32261
0.322603
0.322598
0.322595
0.322593
0.322591
0.32259
0.32259
0.322589
0.322589
0.322589
0.322589
0.322589
0.322589
0.322589
0.322589
0.322589
0.322589
0.322589
0.322589
0.322589
0.322589
0.32259
0.32259
0.322591
0.322592
0.322596
0.337301
0.335811
0.334385
0.33302
0.331713
0.330464
0.329272
0.328141
0.327078
0.326092
0.325194
0.324398
0.323718
0.323164
0.322742
0.322449
0.322278
0.322209
0.322219
0.322283
0.322373
0.322469
0.322554
0.32262
0.322663
0.322686
0.322692
0.322686
0.322674
0.322659
0.322643
0.32263
0.322618
0.322609
0.322603
0.322598
0.322594
0.322592
0.322591
0.32259
0.322589
0.322589
0.322589
0.322589
0.322589
0.322589
0.322589
0.322589
0.322589
0.322589
0.322589
0.322589
0.322589
0.322589
0.322589
0.322589
0.32259
0.322591
0.322594
0.322599
0.337301
0.335811
0.334385
0.33302
0.331713
0.330464
0.329272
0.328141
0.327078
0.326092
0.325194
0.324398
0.323718
0.323164
0.322741
0.322449
0.322278
0.322209
0.322219
0.322283
0.322373
0.322468
0.322554
0.32262
0.322663
0.322686
0.322692
0.322686
0.322674
0.322659
0.322643
0.32263
0.322618
0.322609
0.322602
0.322598
0.322594
0.322592
0.322591
0.32259
0.322589
0.322589
0.322589
0.322589
0.322589
0.322589
0.322589
0.322589
0.322589
0.322589
0.322589
0.322589
0.322589
0.322589
0.322589
0.32259
0.322591
0.322593
0.322597
0.322605
0.337301
0.335811
0.334385
0.33302
0.331713
0.330464
0.329272
0.328141
0.327078
0.326092
0.325194
0.324398
0.323718
0.323164
0.322741
0.322449
0.322278
0.322209
0.322219
0.322283
0.322373
0.322468
0.322554
0.32262
0.322663
0.322686
0.322692
0.322686
0.322674
0.322659
0.322643
0.32263
0.322618
0.322609
0.322602
0.322598
0.322594
0.322592
0.322591
0.32259
0.322589
0.322589
0.322589
0.322589
0.322589
0.322589
0.322589
0.322589
0.322589
0.322589
0.322589
0.322589
0.322589
0.322589
0.32259
0.32259
0.322592
0.322595
0.322601
0.322615
0.337301
0.335811
0.334385
0.33302
0.331713
0.330464
0.329272
0.328141
0.327078
0.326092
0.325194
0.324398
0.323718
0.323164
0.322741
0.322449
0.322278
0.322209
0.322219
0.322283
0.322373
0.322468
0.322554
0.32262
0.322663
0.322686
0.322692
0.322686
0.322674
0.322659
0.322643
0.32263
0.322618
0.322609
0.322602
0.322598
0.322594
0.322592
0.322591
0.32259
0.322589
0.322589
0.322589
0.322589
0.322589
0.322589
0.322589
0.322589
0.322589
0.322589
0.322589
0.322589
0.322589
0.32259
0.32259
0.322591
0.322594
0.322599
0.322609
0.32263
0.337301
0.335811
0.334385
0.33302
0.331713
0.330464
0.329272
0.328141
0.327078
0.326092
0.325194
0.324398
0.323718
0.323164
0.322741
0.322449
0.322278
0.322209
0.322219
0.322283
0.322373
0.322468
0.322554
0.32262
0.322663
0.322686
0.322692
0.322686
0.322674
0.322659
0.322643
0.32263
0.322618
0.322609
0.322602
0.322598
0.322594
0.322592
0.322591
0.32259
0.322589
0.322589
0.322589
0.322589
0.322589
0.322589
0.322589
0.322589
0.322589
0.322589
0.322589
0.322589
0.32259
0.32259
0.322591
0.322593
0.322597
0.322604
0.32262
0.322653
0.337301
0.335811
0.334385
0.33302
0.331713
0.330464
0.329272
0.328141
0.327078
0.326092
0.325194
0.324398
0.323718
0.323164
0.322741
0.322449
0.322278
0.322209
0.322219
0.322283
0.322373
0.322468
0.322554
0.32262
0.322663
0.322686
0.322692
0.322686
0.322674
0.322659
0.322643
0.32263
0.322618
0.322609
0.322602
0.322598
0.322594
0.322592
0.322591
0.32259
0.322589
0.322589
0.322589
0.322589
0.322589
0.322589
0.322589
0.322589
0.322589
0.322589
0.322589
0.322589
0.32259
0.322591
0.322592
0.322595
0.322601
0.322612
0.322636
0.322686
0.337301
0.335811
0.334385
0.33302
0.331713
0.330464
0.329272
0.328141
0.327078
0.326092
0.325194
0.324398
0.323718
0.323164
0.322741
0.322449
0.322278
0.322209
0.322219
0.322283
0.322373
0.322468
0.322554
0.32262
0.322663
0.322686
0.322692
0.322686
0.322674
0.322659
0.322643
0.32263
0.322618
0.322609
0.322602
0.322598
0.322594
0.322592
0.322591
0.32259
0.322589
0.322589
0.322589
0.322589
0.322589
0.322589
0.322589
0.322589
0.322589
0.322589
0.322589
0.32259
0.32259
0.322591
0.322593
0.322598
0.322606
0.322624
0.322659
0.322733
0.337301
0.335811
0.334385
0.33302
0.331713
0.330464
0.329272
0.328141
0.327078
0.326092
0.325194
0.324398
0.323718
0.323164
0.322741
0.322449
0.322278
0.322209
0.322219
0.322283
0.322373
0.322468
0.322554
0.32262
0.322663
0.322686
0.322692
0.322686
0.322674
0.322659
0.322643
0.32263
0.322618
0.322609
0.322602
0.322598
0.322594
0.322592
0.322591
0.32259
0.322589
0.322589
0.322589
0.322589
0.322589
0.322589
0.322589
0.322589
0.322589
0.322589
0.32259
0.32259
0.322591
0.322592
0.322595
0.322601
0.322614
0.322639
0.322689
0.322796
0.337301
0.335811
0.334385
0.33302
0.331713
0.330464
0.329272
0.328141
0.327078
0.326092
0.325194
0.324398
0.323718
0.323164
0.322741
0.322449
0.322278
0.322209
0.322219
0.322283
0.322373
0.322468
0.322554
0.32262
0.322663
0.322686
0.322692
0.322686
0.322674
0.322659
0.322643
0.32263
0.322618
0.322609
0.322602
0.322598
0.322594
0.322592
0.322591
0.32259
0.322589
0.322589
0.322589
0.322589
0.322589
0.322589
0.322589
0.322589
0.322589
0.32259
0.32259
0.322591
0.322592
0.322594
0.322598
0.322607
0.322625
0.322661
0.322734
0.322886
0.337301
0.335811
0.334385
0.33302
0.331713
0.330464
0.329272
0.328141
0.327078
0.326092
0.325194
0.324398
0.323718
0.323164
0.322741
0.322449
0.322278
0.322209
0.322219
0.322283
0.322373
0.322468
0.322554
0.32262
0.322663
0.322686
0.322692
0.322686
0.322674
0.322659
0.322643
0.32263
0.322618
0.322609
0.322602
0.322598
0.322594
0.322592
0.322591
0.32259
0.322589
0.322589
0.322589
0.322589
0.322589
0.322589
0.322589
0.322589
0.322589
0.32259
0.32259
0.322591
0.322593
0.322596
0.322602
0.322614
0.322639
0.322688
0.32279
0.323002
0.337301
0.335811
0.334385
0.33302
0.331713
0.330464
0.329272
0.328141
0.327078
0.326092
0.325194
0.324398
0.323718
0.323164
0.322741
0.322449
0.322278
0.322209
0.322219
0.322283
0.322373
0.322468
0.322554
0.32262
0.322663
0.322686
0.322692
0.322686
0.322674
0.322659
0.322643
0.32263
0.322618
0.322609
0.322602
0.322598
0.322594
0.322592
0.322591
0.32259
0.322589
0.322589
0.322589
0.322589
0.322589
0.322589
0.322589
0.322589
0.32259
0.32259
0.322591
0.322592
0.322593
0.322597
0.322605
0.322622
0.322654
0.322722
0.322859
0.323149
0.337301
0.335811
0.334385
0.33302
0.331713
0.330464
0.329272
0.328141
0.327078
0.326092
0.325194
0.324398
0.323718
0.323164
0.322741
0.322449
0.322278
0.322209
0.322219
0.322283
0.322373
0.322468
0.322554
0.32262
0.322663
0.322686
0.322692
0.322686
0.322674
0.322659
0.322643
0.32263
0.322618
0.322609
0.322602
0.322598
0.322594
0.322592
0.322591
0.32259
0.322589
0.322589
0.322589
0.322589
0.322589
0.322589
0.322589
0.322589
0.32259
0.32259
0.322591
0.322592
0.322595
0.3226
0.322611
0.322633
0.322677
0.322767
0.32295
0.323339
0.337301
0.335811
0.334385
0.33302
0.331713
0.330464
0.329272
0.328141
0.327078
0.326092
0.325194
0.324398
0.323718
0.323164
0.322741
0.322449
0.322278
0.322209
0.322219
0.322283
0.322373
0.322468
0.322554
0.32262
0.322663
0.322686
0.322692
0.322686
0.322674
0.322659
0.322643
0.32263
0.322618
0.322609
0.322602
0.322598
0.322594
0.322592
0.322591
0.32259
0.322589
0.322589
0.322589
0.322589
0.322589
0.322589
0.322589
0.32259
0.32259
0.322591
0.322591
0.322593
0.322596
0.322603
0.322617
0.322645
0.322702
0.322818
0.323056
0.323568
0.337301
0.335811
0.334385
0.33302
0.331713
0.330464
0.329272
0.328141
0.327078
0.326092
0.325194
0.324398
0.323718
0.323164
0.322741
0.322449
0.322278
0.322209
0.322219
0.322283
0.322373
0.322468
0.322554
0.32262
0.322663
0.322686
0.322692
0.322686
0.322674
0.322659
0.322643
0.32263
0.322618
0.322609
0.322602
0.322598
0.322594
0.322592
0.322591
0.32259
0.322589
0.322589
0.322589
0.322589
0.322589
0.322589
0.322589
0.32259
0.32259
0.322591
0.322592
0.322594
0.322598
0.322607
0.322624
0.322659
0.322731
0.322877
0.32318
0.323842
0.337301
0.335811
0.334385
0.33302
0.331713
0.330464
0.329272
0.328141
0.327078
0.326092
0.325194
0.324398
0.323718
0.323164
0.322741
0.322449
0.322278
0.322209
0.322219
0.322283
0.322373
0.322468
0.322554
0.32262
0.322663
0.322686
0.322692
0.322686
0.322674
0.322659
0.322643
0.32263
0.322618
0.322609
0.322602
0.322598
0.322594
0.322592
0.322591
0.32259
0.322589
0.322589
0.322589
0.322589
0.322589
0.322589
0.322589
0.32259
0.32259
0.322591
0.322592
0.322595
0.3226
0.322611
0.322632
0.322675
0.322763
0.322943
0.323316
0.32415
0.337301
0.335811
0.334385
0.33302
0.331713
0.330464
0.329272
0.328141
0.327078
0.326092
0.325194
0.324398
0.323718
0.323164
0.322741
0.322449
0.322278
0.322209
0.322219
0.322283
0.322373
0.322468
0.322554
0.32262
0.322663
0.322686
0.322692
0.322686
0.322674
0.322659
0.322643
0.32263
0.322618
0.322609
0.322602
0.322598
0.322594
0.322592
0.322591
0.32259
0.322589
0.322589
0.322589
0.322589
0.322589
0.322589
0.32259
0.32259
0.322591
0.322591
0.322593
0.322596
0.322602
0.322614
0.32264
0.322691
0.322797
0.323012
0.323462
0.324489
0.337301
0.335811
0.334385
0.33302
0.331713
0.330464
0.329272
0.328141
0.327078
0.326092
0.325194
0.324398
0.323718
0.323164
0.322741
0.322449
0.322278
0.322209
0.322219
0.322283
0.322373
0.322468
0.322554
0.32262
0.322663
0.322686
0.322692
0.322686
0.322674
0.322659
0.322643
0.32263
0.322618
0.322609
0.322602
0.322598
0.322594
0.322592
0.322591
0.32259
0.322589
0.322589
0.322589
0.322589
0.322589
0.322589
0.32259
0.32259
0.322591
0.322592
0.322593
0.322597
0.322604
0.322619
0.322648
0.322709
0.322832
0.323086
0.323617
0.324849
0.337301
0.335811
0.334385
0.33302
0.331713
0.330464
0.329272
0.328141
0.327078
0.326092
0.325194
0.324398
0.323718
0.323164
0.322741
0.322449
0.322278
0.322209
0.322219
0.322283
0.322373
0.322468
0.322554
0.32262
0.322663
0.322686
0.322692
0.322686
0.322674
0.322659
0.322643
0.32263
0.322618
0.322609
0.322602
0.322598
0.322594
0.322592
0.322591
0.32259
0.322589
0.322589
0.322589
0.322589
0.322589
0.322589
0.32259
0.32259
0.322591
0.322592
0.322594
0.322598
0.322606
0.322622
0.322656
0.322724
0.322865
0.323154
0.323764
0.325201
0.337301
0.335811
0.334385
0.33302
0.331713
0.330464
0.329272
0.328141
0.327078
0.326092
0.325194
0.324398
0.323718
0.323164
0.322741
0.322449
0.322278
0.322209
0.322219
0.322283
0.322373
0.322468
0.322554
0.32262
0.322663
0.322686
0.322692
0.322686
0.322674
0.322659
0.322643
0.32263
0.322618
0.322609
0.322602
0.322598
0.322594
0.322592
0.322591
0.32259
0.322589
0.322589
0.322589
0.322589
0.322589
0.322589
0.32259
0.32259
0.322591
0.322592
0.322594
0.322599
0.322608
0.322626
0.322664
0.32274
0.322896
0.323216
0.323899
0.325539
0.337301
0.335811
0.334385
0.33302
0.331713
0.330464
0.329272
0.328141
0.327078
0.326092
0.325194
0.324398
0.323718
0.323164
0.322741
0.322449
0.322278
0.322209
0.322219
0.322283
0.322373
0.322468
0.322554
0.32262
0.322663
0.322686
0.322692
0.322686
0.322674
0.322659
0.322643
0.32263
0.322618
0.322609
0.322602
0.322598
0.322594
0.322592
0.322591
0.32259
0.322589
0.322589
0.322589
0.322589
0.322589
0.322589
0.32259
0.32259
0.322591
0.322592
0.322594
0.322599
0.322609
0.322629
0.322669
0.322751
0.322919
0.323268
0.324012
0.325818
0.337301
0.335811
0.334385
0.33302
0.331713
0.330464
0.329272
0.328141
0.327078
0.326092
0.325194
0.324398
0.323718
0.323164
0.322741
0.322449
0.322278
0.322209
0.322219
0.322283
0.322373
0.322468
0.322554
0.32262
0.322663
0.322686
0.322692
0.322686
0.322674
0.322659
0.322643
0.32263
0.322618
0.322609
0.322602
0.322598
0.322594
0.322592
0.322591
0.32259
0.322589
0.322589
0.322589
0.322589
0.322589
0.322589
0.32259
0.32259
0.322591
0.322592
0.322595
0.3226
0.32261
0.322631
0.322674
0.32276
0.322937
0.323304
0.324087
0.326005
0.337301
0.335811
0.334385
0.33302
0.331713
0.330464
0.329272
0.328141
0.327078
0.326092
0.325194
0.324398
0.323718
0.323164
0.322741
0.322449
0.322278
0.322209
0.322219
0.322283
0.322373
0.322468
0.322554
0.32262
0.322663
0.322686
0.322692
0.322686
0.322674
0.322659
0.322643
0.32263
0.322618
0.322609
0.322602
0.322598
0.322594
0.322592
0.322591
0.32259
0.322589
0.322589
0.322589
0.322589
0.322589
0.322589
0.32259
0.32259
0.322591
0.322592
0.322595
0.3226
0.32261
0.322632
0.322675
0.322763
0.322944
0.323318
0.324119
0.326093
0.337301
0.335811
0.334385
0.33302
0.331713
0.330464
0.329272
0.328141
0.327078
0.326092
0.325194
0.324398
0.323718
0.323164
0.322741
0.322449
0.322278
0.322209
0.322219
0.322283
0.322373
0.322468
0.322554
0.32262
0.322663
0.322686
0.322692
0.322686
0.322674
0.322659
0.322643
0.32263
0.322618
0.322609
0.322602
0.322598
0.322594
0.322592
0.322591
0.32259
0.322589
0.322589
0.322589
0.322589
0.322589
0.322589
0.32259
0.32259
0.322591
0.322592
0.322595
0.3226
0.32261
0.322632
0.322675
0.322764
0.322945
0.32332
0.324122
0.326092
0.337301
0.335811
0.334385
0.33302
0.331713
0.330464
0.329272
0.328141
0.327078
0.326092
0.325194
0.324398
0.323718
0.323164
0.322741
0.322449
0.322278
0.322209
0.322219
0.322283
0.322373
0.322468
0.322554
0.32262
0.322663
0.322686
0.322692
0.322686
0.322674
0.322659
0.322643
0.32263
0.322618
0.322609
0.322602
0.322598
0.322594
0.322592
0.322591
0.32259
0.322589
0.322589
0.322589
0.322589
0.322589
0.322589
0.32259
0.32259
0.322591
0.322592
0.322595
0.3226
0.32261
0.322631
0.322674
0.32276
0.322937
0.323304
0.324089
0.326011
0.337301
0.335811
0.334385
0.33302
0.331713
0.330464
0.329272
0.328141
0.327078
0.326092
0.325194
0.324398
0.323718
0.323164
0.322741
0.322449
0.322278
0.322209
0.322219
0.322283
0.322373
0.322468
0.322554
0.32262
0.322663
0.322686
0.322692
0.322686
0.322674
0.322659
0.322643
0.32263
0.322618
0.322609
0.322602
0.322598
0.322594
0.322592
0.322591
0.32259
0.322589
0.322589
0.322589
0.322589
0.322589
0.322589
0.32259
0.32259
0.322591
0.322592
0.322595
0.3226
0.32261
0.32263
0.32267
0.322753
0.322922
0.32327
0.324013
0.325823
0.337301
0.335811
0.334385
0.33302
0.331713
0.330464
0.329272
0.328141
0.327078
0.326092
0.325194
0.324398
0.323718
0.323164
0.322741
0.322449
0.322278
0.322209
0.322219
0.322283
0.322373
0.322468
0.322554
0.32262
0.322663
0.322686
0.322692
0.322686
0.322674
0.322659
0.322643
0.32263
0.322618
0.322609
0.322602
0.322598
0.322594
0.322592
0.322591
0.32259
0.322589
0.322589
0.322589
0.322589
0.322589
0.322589
0.32259
0.32259
0.322591
0.322592
0.322594
0.322599
0.322608
0.322626
0.322663
0.322739
0.322893
0.323214
0.3239
0.325536
0.337301
0.335811
0.334385
0.33302
0.331713
0.330464
0.329272
0.328141
0.327078
0.326092
0.325194
0.324398
0.323718
0.323164
0.322741
0.322449
0.322278
0.322209
0.322219
0.322283
0.322373
0.322468
0.322554
0.32262
0.322663
0.322686
0.322692
0.322686
0.322674
0.322659
0.322643
0.32263
0.322618
0.322609
0.322602
0.322598
0.322594
0.322592
0.322591
0.32259
0.322589
0.322589
0.322589
0.322589
0.322589
0.322589
0.32259
0.32259
0.322591
0.322592
0.322594
0.322599
0.322607
0.322624
0.322658
0.322727
0.322869
0.32316
0.323774
0.325218
0.337301
0.335811
0.334385
0.33302
0.331713
0.330464
0.329272
0.328141
0.327078
0.326092
0.325194
0.324398
0.323718
0.323164
0.322741
0.322449
0.322278
0.322209
0.322219
0.322283
0.322373
0.322468
0.322554
0.32262
0.322663
0.322686
0.322692
0.322686
0.322674
0.322659
0.322643
0.32263
0.322618
0.322609
0.322602
0.322598
0.322594
0.322592
0.322591
0.32259
0.322589
0.322589
0.322589
0.322589
0.322589
0.322589
0.32259
0.32259
0.322591
0.322592
0.322594
0.322598
0.322605
0.32262
0.322651
0.322712
0.322836
0.323089
0.323621
0.324856
0.337301
0.335811
0.334385
0.33302
0.331713
0.330464
0.329272
0.328141
0.327078
0.326092
0.325194
0.324398
0.323718
0.323164
0.322741
0.322449
0.322278
0.322209
0.322219
0.322283
0.322373
0.322468
0.322554
0.32262
0.322663
0.322686
0.322692
0.322686
0.322674
0.322659
0.322643
0.32263
0.322618
0.322609
0.322602
0.322598
0.322594
0.322592
0.322591
0.32259
0.322589
0.322589
0.322589
0.322589
0.322589
0.322589
0.32259
0.32259
0.322591
0.322592
0.322594
0.322597
0.322603
0.322615
0.322638
0.322687
0.322791
0.323003
0.323448
0.324466
0.337301
0.335811
0.334385
0.33302
0.331713
0.330464
0.329272
0.328141
0.327078
0.326092
0.325194
0.324398
0.323718
0.323164
0.322741
0.322449
0.322278
0.322209
0.322219
0.322283
0.322373
0.322468
0.322554
0.32262
0.322663
0.322686
0.322692
0.322686
0.322674
0.322659
0.322643
0.32263
0.322618
0.322609
0.322602
0.322598
0.322594
0.322592
0.322591
0.32259
0.322589
0.322589
0.322589
0.322589
0.322589
0.322589
0.322589
0.32259
0.32259
0.322591
0.322593
0.322596
0.322601
0.322612
0.322634
0.322677
0.322765
0.322945
0.32332
0.324151
0.337301
0.335811
0.334385
0.33302
0.331713
0.330464
0.329272
0.328141
0.327078
0.326092
0.325194
0.324398
0.323718
0.323164
0.322741
0.322449
0.322278
0.322209
0.322219
0.322283
0.322373
0.322468
0.322554
0.32262
0.322663
0.322686
0.322692
0.322686
0.322674
0.322659
0.322643
0.32263
0.322618
0.322609
0.322602
0.322598
0.322594
0.322592
0.322591
0.32259
0.322589
0.322589
0.322589
0.322589
0.322589
0.322589
0.322589
0.32259
0.32259
0.322591
0.322593
0.322595
0.322599
0.322608
0.322625
0.322661
0.322733
0.322881
0.323184
0.323845
0.337301
0.335811
0.334385
0.33302
0.331713
0.330464
0.329272
0.328141
0.327078
0.326092
0.325194
0.324398
0.323718
0.323164
0.322741
0.322449
0.322278
0.322209
0.322219
0.322283
0.322373
0.322468
0.322554
0.32262
0.322663
0.322686
0.322692
0.322686
0.322674
0.322659
0.322643
0.32263
0.322618
0.322609
0.322602
0.322598
0.322594
0.322592
0.322591
0.32259
0.322589
0.322589
0.322589
0.322589
0.322589
0.322589
0.322589
0.322589
0.32259
0.32259
0.322591
0.322593
0.322596
0.322603
0.322617
0.322645
0.322702
0.322819
0.323058
0.323573
0.337301
0.335811
0.334385
0.33302
0.331713
0.330464
0.329272
0.328141
0.327078
0.326092
0.325194
0.324398
0.323718
0.323164
0.322741
0.322449
0.322278
0.322209
0.322219
0.322283
0.322373
0.322468
0.322554
0.32262
0.322663
0.322686
0.322692
0.322686
0.322674
0.322659
0.322643
0.32263
0.322618
0.322609
0.322602
0.322598
0.322594
0.322592
0.322591
0.32259
0.322589
0.322589
0.322589
0.322589
0.322589
0.322589
0.322589
0.322589
0.32259
0.32259
0.322591
0.322592
0.322595
0.3226
0.322611
0.322633
0.322677
0.322767
0.322951
0.323342
0.337301
0.335811
0.334385
0.33302
0.331713
0.330464
0.329272
0.328141
0.327078
0.326092
0.325194
0.324398
0.323718
0.323164
0.322741
0.322449
0.322278
0.322209
0.322219
0.322283
0.322373
0.322468
0.322554
0.32262
0.322663
0.322686
0.322692
0.322686
0.322674
0.322659
0.322643
0.32263
0.322618
0.322609
0.322602
0.322598
0.322594
0.322592
0.322591
0.32259
0.322589
0.322589
0.322589
0.322589
0.322589
0.322589
0.322589
0.322589
0.322589
0.32259
0.32259
0.322591
0.322593
0.322597
0.322605
0.322622
0.322655
0.322723
0.322861
0.323152
0.337301
0.335811
0.334385
0.33302
0.331713
0.330464
0.329272
0.328141
0.327078
0.326092
0.325194
0.324398
0.323718
0.323164
0.322741
0.322449
0.322278
0.322209
0.322219
0.322283
0.322373
0.322468
0.322554
0.32262
0.322663
0.322686
0.322692
0.322686
0.322674
0.322659
0.322643
0.32263
0.322618
0.322609
0.322602
0.322598
0.322594
0.322592
0.322591
0.32259
0.322589
0.322589
0.322589
0.322589
0.322589
0.322589
0.322589
0.322589
0.322589
0.322589
0.32259
0.322591
0.322592
0.322595
0.322601
0.322613
0.322638
0.322688
0.322789
0.323001
0.337301
0.335811
0.334385
0.33302
0.331713
0.330464
0.329272
0.328141
0.327078
0.326092
0.325194
0.324398
0.323718
0.323164
0.322741
0.322449
0.322278
0.322209
0.322219
0.322283
0.322373
0.322468
0.322554
0.32262
0.322663
0.322686
0.322692
0.322686
0.322674
0.322659
0.322643
0.32263
0.322618
0.322609
0.322602
0.322598
0.322594
0.322592
0.322591
0.32259
0.322589
0.322589
0.322589
0.322589
0.322589
0.322589
0.322589
0.322589
0.322589
0.322589
0.32259
0.32259
0.322591
0.322593
0.322597
0.322606
0.322624
0.32266
0.322732
0.322884
0.337301
0.335811
0.334385
0.33302
0.331713
0.330464
0.329272
0.328141
0.327078
0.326092
0.325194
0.324398
0.323718
0.323164
0.322741
0.322449
0.322278
0.322209
0.322219
0.322283
0.322373
0.322468
0.322554
0.32262
0.322663
0.322686
0.322692
0.322686
0.322674
0.322659
0.322643
0.32263
0.322618
0.322609
0.322602
0.322598
0.322594
0.322592
0.322591
0.32259
0.322589
0.322589
0.322589
0.322589
0.322589
0.322589
0.322589
0.322589
0.322589
0.322589
0.322589
0.32259
0.32259
0.322592
0.322595
0.322601
0.322613
0.322638
0.322689
0.322795
0.337301
0.335811
0.334385
0.33302
0.331713
0.330464
0.329272
0.328141
0.327078
0.326092
0.325194
0.324398
0.323718
0.323164
0.322741
0.322449
0.322278
0.322209
0.322219
0.322283
0.322373
0.322468
0.322554
0.32262
0.322663
0.322686
0.322692
0.322686
0.322674
0.322659
0.322643
0.32263
0.322618
0.322609
0.322602
0.322598
0.322594
0.322592
0.322591
0.32259
0.322589
0.322589
0.322589
0.322589
0.322589
0.322589
0.322589
0.322589
0.322589
0.322589
0.322589
0.322589
0.32259
0.322591
0.322593
0.322597
0.322606
0.322623
0.322657
0.32273
0.337301
0.335811
0.334385
0.33302
0.331713
0.330464
0.329272
0.328141
0.327078
0.326092
0.325194
0.324398
0.323718
0.323164
0.322741
0.322449
0.322278
0.322209
0.322219
0.322283
0.322373
0.322468
0.322554
0.32262
0.322663
0.322686
0.322692
0.322686
0.322674
0.322659
0.322643
0.32263
0.322618
0.322609
0.322602
0.322598
0.322594
0.322592
0.322591
0.32259
0.322589
0.322589
0.322589
0.322589
0.322589
0.322589
0.322589
0.322589
0.322589
0.322589
0.322589
0.322589
0.32259
0.32259
0.322592
0.322595
0.3226
0.322612
0.322635
0.322684
0.337301
0.335811
0.334385
0.33302
0.331713
0.330464
0.329272
0.328141
0.327078
0.326092
0.325194
0.324398
0.323718
0.323164
0.322741
0.322449
0.322278
0.322209
0.322219
0.322283
0.322373
0.322468
0.322554
0.32262
0.322663
0.322686
0.322692
0.322686
0.322674
0.322659
0.322643
0.32263
0.322618
0.322609
0.322602
0.322598
0.322594
0.322592
0.322591
0.32259
0.322589
0.322589
0.322589
0.322589
0.322589
0.322589
0.322589
0.322589
0.322589
0.322589
0.322589
0.322589
0.322589
0.32259
0.322591
0.322593
0.322596
0.322604
0.32262
0.322652
0.337301
0.335811
0.334385
0.33302
0.331713
0.330464
0.329272
0.328141
0.327078
0.326092
0.325194
0.324398
0.323718
0.323164
0.322741
0.322449
0.322278
0.322209
0.322219
0.322283
0.322373
0.322468
0.322554
0.32262
0.322663
0.322686
0.322692
0.322686
0.322674
0.322659
0.322643
0.32263
0.322618
0.322609
0.322602
0.322598
0.322594
0.322592
0.322591
0.32259
0.322589
0.322589
0.322589
0.322589
0.322589
0.322589
0.322589
0.322589
0.322589
0.322589
0.322589
0.322589
0.322589
0.32259
0.32259
0.322591
0.322594
0.322599
0.322609
0.32263
0.337301
0.335811
0.334385
0.33302
0.331713
0.330464
0.329272
0.328141
0.327078
0.326092
0.325194
0.324398
0.323718
0.323164
0.322741
0.322449
0.322278
0.322209
0.322219
0.322283
0.322373
0.322468
0.322554
0.32262
0.322663
0.322686
0.322692
0.322686
0.322674
0.322659
0.322643
0.32263
0.322618
0.322609
0.322602
0.322598
0.322594
0.322592
0.322591
0.32259
0.322589
0.322589
0.322589
0.322589
0.322589
0.322589
0.322589
0.322589
0.322589
0.322589
0.322589
0.322589
0.322589
0.322589
0.32259
0.322591
0.322592
0.322595
0.322602
0.322615