/*--------------------------------*- C++ -*----------------------------------*\
  =========                 |
  \\      /  F ield         | OpenFOAM: The Open Source CFD Toolbox
   \\    /   O peration     | Website:  https://openfoam.org
    \\  /    A nd           | Version:  9
     \\/     M anipulation  |
\*---------------------------------------------------------------------------*/
FoamFile
{
    format      ascii;
    class       volScalarField;
    location    "0.003";
    object      p;
}
// * * * * * * * * * * * * * * * * * * * * * * * * * * * * * * * * * * * * * //

dimensions      [1 -1 -2 0 0 0 0];

internalField   nonuniform List<scalar> 
36400
(
2
2
2
2
2
2
2
2
2
2
2
2
2
2
2
2
2
2
2
2
2
2
2
2
2
2
2
2
2
2
2
2
2
2
2
2
2
2
2
2
2
2
2
2
2
2
2
2
2
2
2
2
2
2
2
2
2
2.00001
2.00001
2.00002
2
2
2
2
2
2
2
2
2
2
2
2
2
2
2
2
2
2
2
2
2
2
2
2
2
2
2
2
2
2
2
2
2
2
2
2
2
2
2
2
2
2
2
2
2
2
2
2
2
2
2
2
2
2.00001
2.00001
2.00001
2.00001
2.00001
2.00002
2.00002
2
2
2
2
2
2
2
2
2
2
2
2
2
2
2
2
2
2
2
2
2
2
2
2
2
2
2
2
2
2
2
2
2
2
2
2
2
2
2
2
2
2
2
2
2
2
2
2
2
2
2
2
2
2
2
2
2
2.00001
2.00001
2.00002
2
2
2
2
2
2
2
2
2
2
2
2
2
2
2
2
2
2
2
2
2
2
2
2
2
2
2
2
2
2
2
2
2
2
2
2
2
2
2
2
2
2
2
2
2
2
2
2
2
2
2
2
2
2
2
2
2.00001
2.00001
2.00001
2.00002
2
2
2
2
2
2
2
2
2
2
2
2
2
2
2
2
2
2
2
2
2
2
2
2
2
2
2
2
2
2
2
2
2
2
2
2
2
2
2
2
2
2
2
2
2
2
2
2
2
2
2
2
2
2
2
2
2
2.00001
2.00001
2.00002
2
2
2
2
2
2
2
2
2
2
2
2
2
2
2
2
2
2
2
2
2
2
2
2
2
2
2
2
2
2
2
2
2
2
2
2
2
2
2
2
2
2
2
2
2
2
2
2
2
2
2
2
2
2
2
2
2
2.00001
2.00001
2.00002
2
2
2
2
2
2
2
2
2
2
2
2
2
2
2
2
2
2
2
2
2
2
2
2
2
2
2
2
2
2
2
2
2
2
2
2
2
2
2
2
2
2
2
2
2
2
2
2
2
2
2
2
2
2
2
2
2
2.00001
2.00001
2.00002
2
2
2
2
2
2
2
2
2
2
2
2
2
2
2
2
2
2
2
2
2
2
2
2
2
2
2
2
2
2
2
2
2
2
2
2
2
2
2
2
2
2
2
2
2
2
2
2
2
2
2
2
2
2
2
2
2.00001
2.00001
2.00001
2.00002
2
2
2
2
2
2
2
2
2
2
2
2
2
2
2
2
2
2
2
2
2
2
2
2
2
2
2
2
2
2
2
2
2
2
2
2
2
2
2
2
2
2
2
2
2
2
2
2
2
2
2
2
2
2
2
2
2.00001
2.00001
2.00002
2.00003
2
2
2
2
2
2
2
2
2
2
2
2
2
2
2
2
2
2
2
2
2
2
2
2
2
2
2
2
2
2
2
2
2
2
2
2
2
2
2
2
2
2
2
2
2
2
2
2
2
2
2
2
2
2
2
2.00001
2.00001
2.00001
2.00002
2.00004
2
2
2
2
2
2
2
2
2
2
2
2
2
2
2
2
2
2
2
2
2
2
2
2
2
2
2
2
2
2
2
2
2
2
2
2
2
2
2
2
2
2
2
2
2
2
2
2
2
2
2
2
2
2
2
2.00001
2.00001
2.00002
2.00003
2.00005
2
2
2
2
2
2
2
2
2
2
2
2
2
2
2
2
2
2
2
2
2
2
2
2
2
2
2
2
2
2
2
2
2
2
2
2
2
2
2
2
2
2
2
2
2
2
2
2
2
2
2
2
2
2
2.00001
2.00001
2.00001
2.00002
2.00004
2.00008
2
2
2
2
2
2
2
2
2
2
2
2
2
2
2
2
2
2
2
2
2
2
2
2
2
2
2
2
2
2
2
2
2
2
2
2
2
2
2
2
2
2
2
2
2
2
2
2
2
2
2
2
2
2.00001
2.00001
2.00001
2.00002
2.00003
2.00006
2.00012
2
2
2
2
2
2
2
2
2
2
2
2
2
2
2
2
2
2
2
2
2
2
2
2
2
2
2
2
2
2
2
2
2
2
2
2
2
2
2
2
2
2
2
2
2
2
2
2
2
2
2
2
2
2.00001
2.00001
2.00002
2.00003
2.00005
2.0001
2.0002
2
2
2
2
2
2
2
2
2
2
2
2
2
2
2
2
2
2
2
2
2
2
2
2
2
2
2
2
2
2
2
2
2
2
2
2
2
2
2
2
2
2
2
2
2
2
2
2
2
2
2
2
2.00001
2.00001
2.00001
2.00002
2.00004
2.00008
2.00016
2.00032
2
2
2
2
2
2
2
2
2
2
2
2
2
2
2
2
2
2
2
2
2
2
2
2
2
2
2
2
2
2
2
2
2
2
2
2
2
2
2
2
2
2
2
2
2
2
2
2
2
2
2
2.00001
2.00001
2.00001
2.00002
2.00004
2.00007
2.00013
2.00025
2.00051
2
2
2
2
2
2
2
2
2
2
2
2
2
2
2
2
2
2
2
2
2
2
2
2
2
2
2
2
2
2
2
2
2
2
2
2
2
2
2
2
2
2
2
2
2
2
2
2
2
2
2.00001
2.00001
2.00001
2.00002
2.00003
2.00005
2.0001
2.0002
2.0004
2.00081
2
2
2
2
2
2
2
2
2
2
2
2
2
2
2
2
2
2
2
2
2
2
2
2
2
2
2
2
2
2
2
2
2
2
2
2
2
2
2
2
2
2
2
2
2
2
2
2
2
2.00001
2.00001
2.00001
2.00002
2.00003
2.00005
2.00008
2.00016
2.00031
2.00062
2.00125
2
2
2
2
2
2
2
2
2
2
2
2
2
2
2
2
2
2
2
2
2
2
2
2
2
2
2
2
2
2
2
2
2
2
2
2
2
2
2
2
2
2
2
2
2
2
2
2
2.00001
2.00001
2.00001
2.00002
2.00003
2.00004
2.00007
2.00013
2.00024
2.00047
2.00095
2.00191
2
2
2
2
2
2
2
2
2
2
2
2
2
2
2
2
2
2
2
2
2
2
2
2
2
2
2
2
2
2
2
2
2
2
2
2
2
2
2
2
2
2
2
2
2
2
2
2.00001
2.00001
2.00001
2.00002
2.00002
2.00004
2.00006
2.0001
2.00018
2.00035
2.0007
2.0014
2.00283
2
2
2
2
2
2
2
2
2
2
2
2
2
2
2
2
2
2
2
2
2
2
2
2
2
2
2
2
2
2
2
2
2
2
2
2
2
2
2
2
2
2
2
2
2
2
2
2.00001
2.00001
2.00002
2.00002
2.00003
2.00005
2.00008
2.00014
2.00026
2.0005
2.001
2.00202
2.00408
2
2
2
2
2
2
2
2
2
2
2
2
2
2
2
2
2
2
2
2
2
2
2
2
2
2
2
2
2
2
2
2
2
2
2
2
2
2
2
2
2
2
2
2
2
2
2.00001
2.00001
2.00001
2.00002
2.00003
2.00004
2.00006
2.0001
2.00019
2.00036
2.00072
2.00143
2.00288
2.00585
2
2
2
2
2
2
2
2
2
2
2
2
2
2
2
2
2
2
2
2
2
2
2
2
2
2
2
2
2
2
2
2
2
2
2
2
2
2
2
2
2
2
2
2
2
2.00001
2.00001
2.00001
2.00002
2.00002
2.00003
2.00005
2.00008
2.00014
2.00025
2.0005
2.00098
2.00197
2.00399
2.00812
2
2
2
2
2
2
2
2
2
2
2
2
2
2
2
2
2
2
2
2
2
2
2
2
2
2
2
2
2
2
2
2
2
2
2
2
2
2
2
2
2
2
2
2
2
2.00001
2.00001
2.00001
2.00002
2.00003
2.00004
2.00006
2.0001
2.00018
2.00034
2.00066
2.00131
2.00265
2.00539
2.01097
2
2
2
2
2
2
2
2
2
2
2
2
2
2
2
2
2
2
2
2
2
2
2
2
2
2
2
2
2
2
2
2
2
2
2
2
2
2
2
2
2
2
2
2
2
2.00001
2.00001
2.00002
2.00002
2.00003
2.00005
2.00007
2.00012
2.00023
2.00044
2.00087
2.00174
2.00352
2.00713
2.01453
2
2
2
2
2
2
2
2
2
2
2
2
2
2
2
2
2
2
2
2
2
2
2
2
2
2
2
2
2
2
2
2
2
2
2
2
2
2
2
2
2
2
2
2
2.00001
2.00001
2.00001
2.00002
2.00003
2.00004
2.00006
2.00009
2.00016
2.00029
2.00056
2.00111
2.00225
2.00455
2.00922
2.01881
2
2
2
2
2
2
2
2
2
2
2
2
2
2
2
2
2
2
2
2
2
2
2
2
2
2
2
2
2
2
2
2
2
2
2
2
2
2
2
2
2
2
2
2
2.00001
2.00001
2.00001
2.00002
2.00003
2.00005
2.00007
2.00011
2.00019
2.00036
2.0007
2.0014
2.0028
2.00569
2.01162
2.02377
2
2
2
2
2
2
2
2
2
2
2
2
2
2
2
2
2
2
2
2
2
2
2
2
2
2
2
2
2
2
2
2
2
2
2
2
2
2
2
2
2
2
2
2.00001
2.00001
2.00001
2.00002
2.00002
2.00004
2.00005
2.00008
2.00013
2.00023
2.00044
2.00086
2.00171
2.00344
2.00697
2.0142
2.02919
2
2
2
2
2
2
2
2
2
2
2
2
2
2
2
2
2
2
2
2
2
2
2
2
2
2
2
2
2
2
2
2
2
2
2
2
2
2
2
2
2
2
2
2.00001
2.00001
2.00001
2.00002
2.00003
2.00004
2.00006
2.00009
2.00015
2.00027
2.00052
2.00102
2.00204
2.00411
2.00833
2.017
2.03499
2
2
2
2
2
2
2
2
2
2
2
2
2
2
2
2
2
2
2
2
2
2
2
2
2
2
2
2
2
2
2
2
2
2
2
2
2
2
2
2
2
2
2
2.00001
2.00001
2.00001
2.00002
2.00003
2.00004
2.00006
2.00009
2.00016
2.00031
2.00059
2.00117
2.00236
2.00479
2.00975
2.01988
2.04088
2
2
2
2
2
2
2
2
2
2
2
2
2
2
2
2
2
2
2
2
2
2
2
2
2
2
2
2
2
2
2
2
2
2
2
2
2
2
2
2
2
2
2
2.00001
2.00001
2.00001
2.00002
2.00003
2.00005
2.00007
2.00011
2.00019
2.00035
2.00067
2.00133
2.00269
2.00545
2.01108
2.02263
2.04651
2
2
2
2
2
2
2
2
2
2
2
2
2
2
2
2
2
2
2
2
2
2
2
2
2
2
2
2
2
2
2
2
2
2
2
2
2
2
2
2
2
2
2
2.00001
2.00001
2.00001
2.00002
2.00003
2.00004
2.00006
2.00011
2.0002
2.00038
2.00074
2.00148
2.00297
2.00602
2.01223
2.02505
2.05173
2
2
2
2
2
2
2
2
2
2
2
2
2
2
2
2
2
2
2
2
2
2
2
2
2
2
2
2
2
2
2
2
2
2
2
2
2
2
2
2
2
2
2
2.00001
2.00001
2.00002
2.00002
2.00003
2.00005
2.00007
2.00012
2.00022
2.00041
2.0008
2.00159
2.0032
2.00649
2.01325
2.02715
2.05595
2
2
2
2
2
2
2
2
2
2
2
2
2
2
2
2
2
2
2
2
2
2
2
2
2
2
2
2
2
2
2
2
2
2
2
2
2
2
2
2
2
2
2
2.00001
2.00001
2.00001
2.00002
2.00003
2.00004
2.00007
2.00012
2.00022
2.00042
2.00083
2.00167
2.00337
2.00683
2.01391
2.02847
2.05869
2
2
2
2
2
2
2
2
2
2
2
2
2
2
2
2
2
2
2
2
2
2
2
2
2
2
2
2
2
2
2
2
2
2
2
2
2
2
2
2
2
2
2
2.00001
2.00001
2.00002
2.00002
2.00003
2.00005
2.00007
2.00012
2.00023
2.00043
2.00086
2.00171
2.00345
2.00699
2.01421
2.02907
2.06007
2
2
2
2
2
2
2
2
2
2
2
2
2
2
2
2
2
2
2
2
2
2
2
2
2
2
2
2
2
2
2
2
2
2
2
2
2
2
2
2
2
2
2
2.00001
2.00001
2.00001
2.00002
2.00003
2.00005
2.00007
2.00012
2.00022
2.00043
2.00085
2.00171
2.00345
2.00699
2.01423
2.02912
2.06001
2
2
2
2
2
2
2
2
2
2
2
2
2
2
2
2
2
2
2
2
2
2
2
2
2
2
2
2
2
2
2
2
2
2
2
2
2
2
2
2
2
2
2
2.00001
2.00001
2.00002
2.00002
2.00003
2.00005
2.00008
2.00013
2.00023
2.00043
2.00085
2.00168
2.00339
2.00685
2.01393
2.02856
2.0589
2
2
2
2
2
2
2
2
2
2
2
2
2
2
2
2
2
2
2
2
2
2
2
2
2
2
2
2
2
2
2
2
2
2
2
2
2
2
2
2
2
2
2
2.00001
2.00001
2.00001
2.00002
2.00003
2.00005
2.00007
2.00012
2.00021
2.00041
2.0008
2.0016
2.00322
2.00652
2.01325
2.02714
2.05605
2
2
2
2
2
2
2
2
2
2
2
2
2
2
2
2
2
2
2
2
2
2
2
2
2
2
2
2
2
2
2
2
2
2
2
2
2
2
2
2
2
2
2
2.00001
2.00001
2.00002
2.00002
2.00003
2.00005
2.00008
2.00012
2.00021
2.00038
2.00074
2.00148
2.00298
2.00601
2.01224
2.02512
2.05173
2
2
2
2
2
2
2
2
2
2
2
2
2
2
2
2
2
2
2
2
2
2
2
2
2
2
2
2
2
2
2
2
2
2
2
2
2
2
2
2
2
2
2
2.00001
2.00001
2.00002
2.00002
2.00004
2.00005
2.00008
2.00012
2.0002
2.00037
2.0007
2.00137
2.00273
2.00551
2.0112
2.02284
2.04688
2
2
2
2
2
2
2
2
2
2
2
2
2
2
2
2
2
2
2
2
2
2
2
2
2
2
2
2
2
2
2
2
2
2
2
2
2
2
2
2
2
2
2
2.00001
2.00001
2.00001
2.00002
2.00003
2.00004
2.00006
2.0001
2.00017
2.00031
2.0006
2.00119
2.00238
2.0048
2.00974
2.01991
2.04098
2
2
2
2
2
2
2
2
2
2
2
2
2
2
2
2
2
2
2
2
2
2
2
2
2
2
2
2
2
2
2
2
2
2
2
2
2
2
2
2
2
2
2
2.00001
2.00001
2.00001
2.00002
2.00003
2.00005
2.00008
2.00012
2.0002
2.00032
2.00056
2.00105
2.00205
2.0041
2.00829
2.01684
2.03465
2
2
2
2
2
2
2
2
2
2
2
2
2
2
2
2
2
2
2
2
2
2
2
2
2
2
2
2
2
2
2
2
2
2
2
2
2
2
2
2
2
2
2
2
2.00001
2.00001
2.00002
2.00002
2.00003
2.00005
2.00007
2.00013
2.00023
2.00043
2.00085
2.0017
2.00342
2.00696
2.01425
2.0292
2
2
2
2
2
2
2
2
2
2
2
2
2
2
2
2
2
2
2
2
2
2
2
2
2
2
2
2
2
2
2
2
2
2
2
2
2
2
2
2
2
2
2
2.00001
2.00001
2.00001
2.00002
2.00003
2.00004
2.00006
2.00008
2.00013
2.00022
2.00039
2.00073
2.00143
2.00287
2.00578
2.01173
2.02389
2
2
2
2
2
2
2
2
2
2
2
2
2
2
2
2
2
2
2
2
2
2
2
2
2
2
2
2
2
2
2
2
2
2
2
2
2
2
2
2
2
2
2
2
2.00001
2.00001
2.00001
2.00002
2.00003
2.00004
2.00005
2.00009
2.00016
2.00029
2.00056
2.00112
2.00225
2.00456
2.00927
2.01889
2
2
2
2
2
2
2
2
2
2
2
2
2
2
2
2
2
2
2
2
2
2
2
2
2
2
2
2
2
2
2
2
2
2
2
2
2
2
2
2
2
2
2
2
2
2.00001
2.00001
2.00001
2.00002
2.00003
2.00004
2.00007
2.00012
2.00023
2.00044
2.00087
2.00174
2.00352
2.00717
2.01461
2
2
2
2
2
2
2
2
2
2
2
2
2
2
2
2
2
2
2
2
2
2
2
2
2
2
2
2
2
2
2
2
2
2
2
2
2
2
2
2
2
2
2
2
2
2
2.00001
2.00001
2.00002
2.00002
2.00003
2.00005
2.00009
2.00017
2.00033
2.00065
2.00131
2.00266
2.00541
2.01101
2
2
2
2
2
2
2
2
2
2
2
2
2
2
2
2
2
2
2
2
2
2
2
2
2
2
2
2
2
2
2
2
2
2
2
2
2
2
2
2
2
2
2
2
2
2
2.00001
2.00001
2.00001
2.00002
2.00003
2.00004
2.00007
2.00013
2.00024
2.00048
2.00097
2.00196
2.00399
2.0081
2
2
2
2
2
2
2
2
2
2
2
2
2
2
2
2
2
2
2
2
2
2
2
2
2
2
2
2
2
2
2
2
2
2
2
2
2
2
2
2
2
2
2
2
2
2
2
2.00001
2.00001
2.00001
2.00002
2.00003
2.00005
2.00009
2.00018
2.00035
2.0007
2.00141
2.00286
2.0058
2
2
2
2
2
2
2
2
2
2
2
2
2
2
2
2
2
2
2
2
2
2
2
2
2
2
2
2
2
2
2
2
2
2
2
2
2
2
2
2
2
2
2
2
2
2
2
2.00001
2.00001
2.00001
2.00002
2.00002
2.00004
2.00007
2.00013
2.00025
2.00049
2.00099
2.002
2.00406
2
2
2
2
2
2
2
2
2
2
2
2
2
2
2
2
2
2
2
2
2
2
2
2
2
2
2
2
2
2
2
2
2
2
2
2
2
2
2
2
2
2
2
2
2
2
2
2
2.00001
2.00001
2.00001
2.00002
2.00003
2.00005
2.00009
2.00017
2.00034
2.00068
2.00138
2.00279
2
2
2
2
2
2
2
2
2
2
2
2
2
2
2
2
2
2
2
2
2
2
2
2
2
2
2
2
2
2
2
2
2
2
2
2
2
2
2
2
2
2
2
2
2
2
2
2
2
2.00001
2.00001
2.00001
2.00002
2.00003
2.00006
2.00012
2.00023
2.00046
2.00093
2.00187
2
2
2
2
2
2
2
2
2
2
2
2
2
2
2
2
2
2
2
2
2
2
2
2
2
2
2
2
2
2
2
2
2
2
2
2
2
2
2
2
2
2
2
2
2
2
2
2
2
2.00001
2.00001
2.00001
2.00002
2.00003
2.00004
2.00008
2.00016
2.00031
2.00062
2.00125
2
2
2
2
2
2
2
2
2
2
2
2
2
2
2
2
2
2
2
2
2
2
2
2
2
2
2
2
2
2
2
2
2
2
2
2
2
2
2
2
2
2
2
2
2
2
2
2
2
2
2.00001
2.00001
2.00001
2.00002
2.00003
2.00006
2.0001
2.0002
2.0004
2.00081
2
2
2
2
2
2
2
2
2
2
2
2
2
2
2
2
2
2
2
2
2
2
2
2
2
2
2
2
2
2
2
2
2
2
2
2
2
2
2
2
2
2
2
2
2
2
2
2
2
2
2.00001
2.00001
2.00001
2.00001
2.00002
2.00004
2.00007
2.00013
2.00026
2.00051
2
2
2
2
2
2
2
2
2
2
2
2
2
2
2
2
2
2
2
2
2
2
2
2
2
2
2
2
2
2
2
2
2
2
2
2
2
2
2
2
2
2
2
2
2
2
2
2
2
2
2
2.00001
2.00001
2.00001
2.00002
2.00003
2.00005
2.00008
2.00016
2.00032
2
2
2
2
2
2
2
2
2
2
2
2
2
2
2
2
2
2
2
2
2
2
2
2
2
2
2
2
2
2
2
2
2
2
2
2
2
2
2
2
2
2
2
2
2
2
2
2
2
2
2
2
2.00001
2.00001
2.00001
2.00002
2.00003
2.00005
2.0001
2.0002
2
2
2
2
2
2
2
2
2
2
2
2
2
2
2
2
2
2
2
2
2
2
2
2
2
2
2
2
2
2
2
2
2
2
2
2
2
2
2
2
2
2
2
2
2
2
2
2
2
2
2
2
2.00001
2.00001
2.00001
2.00001
2.00002
2.00004
2.00007
2.00013
2
2
2
2
2
2
2
2
2
2
2
2
2
2
2
2
2
2
2
2
2
2
2
2
2
2
2
2
2
2
2
2
2
2
2
2
2
2
2
2
2
2
2
2
2
2
2
2
2
2
2
2
2
2
2.00001
2.00001
2.00001
2.00002
2.00004
2.00008
2
2
2
2
2
2
2
2
2
2
2
2
2
2
2
2
2
2
2
2
2
2
2
2
2
2
2
2
2
2
2
2
2
2
2
2
2
2
2
2
2
2
2
2
2
2
2
2
2
2
2
2
2
2
2
2.00001
2.00001
2.00001
2.00003
2.00005
2
2
2
2
2
2
2
2
2
2
2
2
2
2
2
2
2
2
2
2
2
2
2
2
2
2
2
2
2
2
2
2
2
2
2
2
2
2
2
2
2
2
2
2
2
2
2
2
2
2
2
2
2
2
2
2
2.00001
2.00001
2.00002
2.00003
2
2
2
2
2
2
2
2
2
2
2
2
2
2
2
2
2
2
2
2
2
2
2
2
2
2
2
2
2
2
2
2
2
2
2
2
2
2
2
2
2
2
2
2
2
2
2
2
2
2
2
2
2
2
2
2
2
2.00001
2.00001
2.00002
2
2
2
2
2
2
2
2
2
2
2
2
2
2
2
2
2
2
2
2
2
2
2
2
2
2
2
2
2
2
2
2
2
2
2
2
2
2
2
2
2
2
2
2
2
2
2
2
2
2
2
2
2
2
2
2
2
2.00001
2.00001
2.00002
2
2
2
2
2
2
2
2
2
2
2
2
2
2
2
2
2
2
2
2
2
2
2
2
2
2
2
2
2
2
2
2
2
2
2
2
2
2
2
2
2
2
2
2
2
2
2
2
2
2
2
2
2
2
2
2
2
2
2.00001
2.00001
2
2
2
2
2
2
2
2
2
2
2
2
2
2
2
2
2
2
2
2
2
2
2
2
2
2
2
2
2
2
2
2
2
2
2
2
2
2
2
2
2
2
2
2
2
2
2
2
2
2
2
2
2
2
2
2
2
2
2.00001
2.00001
2
2
2
2
2
2
2
2
2
2
2
2
2
2
2
2
2
2
2
2
2
2
2
2
2
2
2
2
2
2
2
2
2
2
2
2
2
2
2
2
2
2
2
2
2
2
2
2
2
2
2
2
2
2
2
2
2
2
2.00001
2.00001
2
2
2
2
2
2
2
2
2
2
2
2
2
2
2
2
2
2
2
2
2
2
2
2
2
2
2
2
2
2
2
2
2
2
2
2
2
2
2
2
2
2
2
2
2
2
2
2
2
2
2
2
2
2
2
2.00001
2.00001
2.00001
2.00001
2.00002
2
2
2
2
2
2
2
2
2
2
2
2
2
2
2
2
2
2
2
2
2
2
2
2
2
2
2
2
2
2
2
2
2
2
2
2
2
2
2
2
2
2
2
2
2
2
2
2
2
2
2
2
2
2
2
2
2
2
2.00001
2.00001
2
2
2
2
2
2
2
2
2
2
2
2
2
2
2
2
2
2
2
2
2
2
2
2
2
2
2
2
2
2
2
2
2
2
2
2
2
2
2
2
2
2
2
2
2
2
2
2
2
2
2
2
2
2
2
2
2.00001
2.00001
2.00001
2.00001
2
2
2
2
2
2
2
2
2
2
2
2
2
2
2
2
2
2
2
2
2
2
2
2
2
2
2
2
2
2
2
2
2
2
2
2
2
2
2
2
2
2
2
2
2
2
2
2
2
2
2
2
2
2
2
2
2
2
2.00001
2.00001
2.00003
2.00004
2.00006
2.00009
2.00014
2.00022
2.00037
2.00067
2.00129
2.00253
2.00504
2.01008
2.02019
2.04045
2.07873
2.14573
2.25137
2.39985
2.55814
2.66074
2.7129
2.71145
2.70755
2.69419
2.66137
2.61922
2.5684
2.52681
2.48219
2.44739
2.42706
2.40193
2.37203
2.34227
2.31257
2.28213
2.25139
2.22138
2.1922
2.16365
2.1361
2.10987
2.08476
2.0606
2.03765
2.01618
1.99627
1.97775
1.96059
1.94469
1.9299
1.9162
1.90364
1.89226
1.88201
1.87279
1.86447
1.8569
1.84988
1.84316
1.8365
1.82971
1.82272
1.81551
1.8082
1.80135
1.79631
1.79566
1.79594
1.79692
2.00004
2.00005
2.00007
2.00012
2.00018
2.00028
2.0005
2.00094
2.00182
2.00361
2.0072
2.01439
2.0288
2.05669
2.10775
2.19253
2.3146
2.46127
2.5682
2.65483
2.70073
2.69848
2.69455
2.68296
2.65709
2.61296
2.56592
2.52172
2.48086
2.44368
2.41706
2.39147
2.3644
2.33703
2.30892
2.27962
2.24974
2.22036
2.19172
2.16364
2.13646
2.1104
2.0855
2.06165
2.03903
2.01784
1.99811
1.97977
1.9628
1.94704
1.93236
1.91873
1.90619
1.89478
1.88449
1.87523
1.86687
1.85929
1.85231
1.84573
1.83931
1.83285
1.82627
1.81956
1.81273
1.80581
1.7997
1.79691
1.79661
1.79723
2.00005
2.00007
2.0001
2.00016
2.00025
2.00041
2.00073
2.00136
2.00266
2.00533
2.01059
2.02096
2.04178
2.08046
2.14673
2.24412
2.37081
2.47511
2.55857
2.6324
2.67938
2.68144
2.67845
2.66827
2.64622
2.60826
2.56238
2.51949
2.4793
2.44204
2.41136
2.38396
2.35767
2.33185
2.30495
2.27667
2.24762
2.2189
2.19084
2.16336
2.13659
2.11098
2.08647
2.06294
2.04055
2.01954
1.99999
1.98177
1.96494
1.94933
1.93476
1.92118
1.90866
1.89725
1.88691
1.8776
1.86919
1.86156
1.85455
1.84798
1.84161
1.83525
1.82882
1.82234
1.81593
1.80953
1.80354
1.79933
1.79792
1.79756
2.00008
2.0001
2.00013
2.00022
2.00036
2.00061
2.0011
2.00206
2.00405
2.00815
2.01612
2.03158
2.06226
2.11591
2.19877
2.30444
2.41416
2.47699
2.5421
2.60597
2.65379
2.66169
2.65928
2.65099
2.63101
2.60163
2.55886
2.51766
2.47812
2.44096
2.40783
2.3782
2.35153
2.32611
2.3001
2.27291
2.24493
2.2171
2.18975
2.16284
2.13653
2.1113
2.08713
2.06394
2.04183
2.02104
2.00171
1.98361
1.96687
1.95141
1.93697
1.92347
1.91101
1.8996
1.88926
1.87992
1.87149
1.86384
1.85683
1.8503
1.84402
1.8378
1.83153
1.82523
1.81907
1.81303
1.80731
1.80277
1.80042
1.79809
2.0001
2.00013
2.0002
2.00032
2.00053
2.00092
2.00168
2.00319
2.0064
2.01273
2.02496
2.04887
2.09349
2.16514
2.2613
2.36756
2.42955
2.47404
2.52419
2.57757
2.62291
2.63779
2.63589
2.62946
2.6136
2.59219
2.5555
2.51593
2.47735
2.44045
2.40598
2.37437
2.34644
2.32037
2.29459
2.26831
2.2415
2.21474
2.18827
2.16205
2.13631
2.11138
2.08758
2.0647
2.04288
2.02232
2.00321
1.98533
1.96867
1.95336
1.93906
1.92568
1.91328
1.90191
1.89158
1.88223
1.87379
1.86612
1.85912
1.8526
1.84639
1.84028
1.83415
1.82801
1.82204
1.8163
1.8109
1.80635
1.80372
1.79988
2.00014
2.00018
2.0003
2.00047
2.00079
2.00141
2.00262
2.00511
2.01027
2.02007
2.03906
2.07621
2.13849
2.22738
2.32891
2.40001
2.43256
2.46652
2.50555
2.54834
2.5884
2.61002
2.60821
2.60313
2.59548
2.58051
2.55019
2.51414
2.47678
2.44031
2.40524
2.37217
2.34258
2.31517
2.28897
2.26319
2.23742
2.21179
2.18629
2.16085
2.13579
2.11131
2.08778
2.06523
2.0437
2.02339
2.00448
1.98687
1.97037
1.95515
1.941
1.92776
1.91545
1.90414
1.89383
1.88449
1.87605
1.86838
1.86138
1.85489
1.84873
1.84271
1.83669
1.83069
1.82485
1.81932
1.81421
1.80973
1.80713
1.80286
2.00019
2.00027
2.00044
2.00071
2.00122
2.00221
2.00417
2.00839
2.01644
2.03192
2.06222
2.11652
2.19829
2.29691
2.37895
2.41312
2.43233
2.45736
2.48632
2.51886
2.552
2.57644
2.5788
2.57755
2.57336
2.56398
2.54211
2.51168
2.4762
2.4403
2.40505
2.37114
2.33991
2.31093
2.28385
2.25808
2.233
2.20833
2.18375
2.15914
2.13478
2.111
2.08776
2.06548
2.04424
2.02419
2.00551
1.98814
1.97189
1.95678
1.94276
1.92966
1.91747
1.90624
1.89598
1.88666
1.87823
1.87058
1.86359
1.85712
1.85101
1.84507
1.83916
1.83326
1.82753
1.82213
1.81726
1.81285
1.81022
1.80576
2.00029
2.00041
2.00065
2.00109
2.00191
2.00351
2.00686
2.01374
2.02649
2.0513
2.09823
2.17255
2.26946
2.36319
2.40149
2.41705
2.4308
2.44739
2.46666
2.48946
2.51513
2.53857
2.55006
2.54919
2.54753
2.54281
2.531
2.50799
2.47491
2.44016
2.40519
2.37081
2.33836
2.30788
2.27969
2.2535
2.22865
2.20458
2.18074
2.1569
2.13326
2.11023
2.08756
2.06546
2.04444
2.02468
2.00625
1.98911
1.97311
1.95819
1.94431
1.93135
1.9193
1.90817
1.89798
1.88871
1.88031
1.87268
1.86571
1.85926
1.8532
1.84733
1.84152
1.83573
1.83008
1.82478
1.82008
1.81575
1.81315
1.80831
2.00044
2.00062
2.00101
2.00171
2.00304
2.00572
2.01146
2.02234
2.04262
2.08301
2.14987
2.24309
2.34429
2.39401
2.41072
2.41774
2.42718
2.43626
2.44666
2.46058
2.47901
2.49993
2.51641
2.52253
2.52181
2.51881
2.51253
2.49945
2.47317
2.43957
2.40515
2.3709
2.33763
2.30599
2.27671
2.24982
2.22478
2.20087
2.17745
2.15419
2.13121
2.10875
2.08693
2.0653
2.04442
2.02482
2.00663
1.98974
1.97399
1.95928
1.94558
1.93279
1.92088
1.90988
1.89978
1.89058
1.88223
1.87464
1.8677
1.86129
1.85528
1.84948
1.84376
1.83808
1.83252
1.82729
1.82272
1.81847
1.81593
1.81094
2.00067
2.00097
2.0016
2.00272
2.00491
2.00966
2.01905
2.03626
2.07042
2.13
2.21806
2.32199
2.38746
2.40788
2.41425
2.41745
2.42136
2.42354
2.42678
2.43313
2.44536
2.46219
2.48018
2.49266
2.49561
2.49478
2.4916
2.4825
2.46632
2.43795
2.40506
2.37093
2.33739
2.30504
2.27487
2.24721
2.22166
2.19753
2.17416
2.15123
2.12873
2.10677
2.08543
2.06466
2.0442
2.02477
2.00668
1.98998
1.97446
1.95999
1.94649
1.93388
1.92216
1.91131
1.90133
1.89223
1.88395
1.87642
1.86953
1.86317
1.85721
1.85149
1.84587
1.84029
1.83483
1.82967
1.8252
1.82103
1.81862
1.81378
2.00106
2.00155
2.00254
2.00438
2.0083
2.01634
2.03131
2.05988
2.11306
2.19489
2.29734
2.38131
2.40765
2.41387
2.41521
2.41493
2.41364
2.41007
2.40807
2.40956
2.41453
2.42751
2.44211
2.4594
2.46868
2.46795
2.4667
2.46263
2.45285
2.43332
2.40351
2.37071
2.33727
2.30462
2.27389
2.24558
2.21941
2.19479
2.17119
2.14829
2.12603
2.1044
2.08335
2.06301
2.04348
2.02447
2.00661
1.98997
1.97455
1.96026
1.94697
1.93457
1.92305
1.91238
1.90257
1.89359
1.88541
1.87796
1.87114
1.86484
1.85895
1.85332
1.84781
1.84235
1.83701
1.83192
1.82754
1.82347
1.82116
1.81653
2.00168
2.00249
2.00408
2.00732
2.01426
2.02733
2.05139
2.0987
2.17414
2.27473
2.37373
2.40801
2.41607
2.41655
2.41544
2.41197
2.40426
2.39121
2.38656
2.38733
2.39134
2.39811
2.40814
2.42512
2.43721
2.44136
2.4409
2.4383
2.43213
2.4215
2.39986
2.36958
2.33684
2.30427
2.27335
2.24467
2.21797
2.19279
2.16875
2.14564
2.12336
2.10184
2.08099
2.06084
2.04163
2.02361
2.00619
1.98984
1.9745
1.96026
1.94706
1.93481
1.9235
1.91305
1.90342
1.8946
1.88655
1.87921
1.87248
1.86627
1.86046
1.85493
1.84955
1.84423
1.83903
1.83405
1.82976
1.82579
1.82358
1.81897
2.0027
2.004
2.00669
2.01266
2.02401
2.04499
2.08652
2.15579
2.25318
2.36053
2.40752
2.41905
2.41967
2.41841
2.41444
2.40559
2.38829
2.3741
2.36611
2.36731
2.36906
2.37253
2.37908
2.39163
2.40393
2.41204
2.41275
2.41204
2.40923
2.40297
2.38863
2.36577
2.33526
2.30363
2.27277
2.24406
2.21709
2.19144
2.16693
2.14345
2.12094
2.09932
2.07851
2.0585
2.03945
2.02156
2.00505
1.98924
1.97419
1.96016
1.94701
1.93481
1.92359
1.9133
1.90386
1.89523
1.88734
1.88014
1.87353
1.86742
1.86171
1.8563
1.85105
1.8459
1.84086
1.83603
1.83186
1.82802
1.82592
1.82163
2.00434
2.00655
2.01161
2.02146
2.04001
2.07594
2.13975
2.23291
2.34421
2.4058
2.42204
2.42382
2.42271
2.41878
2.40943
2.39128
2.37322
2.3587
2.34907
2.34714
2.3476
2.34981
2.3552
2.3608
2.37097
2.37978
2.38443
2.3839
2.38226
2.37901
2.37176
2.3564
2.33061
2.30142
2.27162
2.24324
2.21633
2.19049
2.16564
2.14178
2.11893
2.09707
2.07613
2.05614
2.03721
2.01943
2.00285
1.98756
1.9733
1.9596
1.94672
1.93472
1.92355
1.91331
1.90398
1.8955
1.88777
1.88072
1.87424
1.86826
1.86268
1.85739
1.8523
1.84733
1.84249
1.83784
1.83383
1.83014
1.82814
1.82431
2.0071
2.01139
2.01968
2.03608
2.06763
2.12593
2.21451
2.326
2.40277
2.42529
2.42846
2.42757
2.42367
2.41513
2.39723
2.37736
2.35927
2.34486
2.33459
2.32861
2.32833
2.32889
2.33079
2.33538
2.34009
2.34732
2.35341
2.35487
2.35447
2.35273
2.34847
2.33828
2.32111
2.29555
2.26873
2.24165
2.21518
2.18945
2.16453
2.14044
2.11729
2.09514
2.07401
2.05394
2.03502
2.0173
2.00075
1.98533
1.97102
1.958
1.94586
1.93418
1.9233
1.91325
1.90396
1.89553
1.88792
1.88099
1.87466
1.86881
1.86335
1.8582
1.85327
1.8485
1.84389
1.83947
1.83565
1.83215
1.83026
1.82671
2.01237
2.01917
2.03301
2.06088
2.11403
2.19825
2.30745
2.3996
2.42862
2.43327
2.43256
2.42922
2.4207
2.40507
2.38388
2.3638
2.34683
2.33286
2.32167
2.31361
2.30901
2.30834
2.30877
2.31098
2.313
2.31705
2.32178
2.32517
2.32493
2.3239
2.3216
2.31635
2.30517
2.28432
2.26146
2.23795
2.21279
2.18776
2.16315
2.13911
2.11584
2.09349
2.07218
2.05199
2.03301
2.01526
1.99869
1.98326
1.9689
1.95568
1.94355
1.93262
1.92252
1.91279
1.9038
1.89551
1.88791
1.88105
1.87483
1.8691
1.86377
1.85876
1.854
1.84943
1.84506
1.84089
1.8373
1.83403
1.83223
1.8289
2.02123
2.03253
2.05576
2.10255
2.184
2.29105
2.39616
2.43123
2.43815
2.43767
2.43436
2.42713
2.41296
2.39129
2.37033
2.352
2.3359
2.3219
2.31002
2.30035
2.2932
2.28876
2.28686
2.28755
2.28803
2.2898
2.29184
2.29462
2.2951
2.2948
2.29349
2.29001
2.28263
2.26913
2.24935
2.22913
2.20776
2.18423
2.16042
2.13698
2.11399
2.09171
2.07039
2.05016
2.03114
2.01333
1.99671
1.98123
1.96684
1.95361
1.94144
1.93031
1.92028
1.91145
1.90318
1.89518
1.88784
1.88105
1.87484
1.8692
1.86399
1.85912
1.85452
1.85015
1.84602
1.84213
1.83879
1.83578
1.8341
1.8308
2.03618
2.05501
2.09336
2.17018
2.2776
2.39179
2.43347
2.44302
2.44244
2.43979
2.43361
2.4203
2.39894
2.3778
2.35873
2.34139
2.32583
2.31189
2.29937
2.2884
2.27932
2.27237
2.2676
2.26483
2.26365
2.26396
2.26439
2.26527
2.26579
2.26563
2.26481
2.2627
2.25761
2.24664
2.23196
2.21522
2.19674
2.17683
2.15528
2.13304
2.11086
2.08913
2.06814
2.04811
2.02917
2.01138
1.99473
1.97922
1.96481
1.95157
1.93942
1.92831
1.91823
1.90916
1.90116
1.89416
1.88735
1.88082
1.87481
1.86922
1.86408
1.85933
1.8549
1.85073
1.84683
1.84321
1.84013
1.83738
1.83589
1.83278
2.06141
2.09204
2.15448
2.26496
2.38687
2.43592
2.44768
2.44792
2.4456
2.43965
2.42705
2.40649
2.38555
2.36607
2.34806
2.33167
2.31662
2.30256
2.28948
2.27752
2.26693
2.25799
2.25084
2.24549
2.24178
2.23944
2.23818
2.2376
2.2372
2.2366
2.23555
2.23351
2.22954
2.22153
2.21036
2.19688
2.18141
2.16421
2.14548
2.12561
2.10519
2.08471
2.06459
2.04514
2.02657
2.00899
1.99246
1.97701
1.96265
1.94944
1.93733
1.92626
1.91624
1.9072
1.89909
1.89184
1.88561
1.88003
1.87439
1.86903
1.86407
1.85942
1.85512
1.85116
1.84751
1.84416
1.84133
1.83883
1.83747
1.83475
2.10337
2.15059
2.2465
2.3824
2.43932
2.4526
2.45321
2.45105
2.44531
2.43356
2.41353
2.39314
2.37353
2.3552
2.33843
2.32278
2.30792
2.29375
2.28022
2.26748
2.25573
2.24521
2.23613
2.22855
2.22247
2.21775
2.21423
2.21164
2.20965
2.20788
2.20609
2.20383
2.20044
2.19479
2.18561
2.1747
2.16194
2.14747
2.13146
2.11417
2.096
2.07739
2.05872
2.04035
2.02255
2.00552
1.98936
1.97418
1.96
1.94693
1.93493
1.92397
1.91403
1.90508
1.89703
1.88981
1.88335
1.87762
1.8728
1.86832
1.86371
1.85929
1.85518
1.8514
1.84803
1.84496
1.8424
1.84013
1.8389
1.83654
2.17179
2.2363
2.36616
2.44516
2.4586
2.4581
2.45615
2.45114
2.43957
2.42032
2.40046
2.38073
2.36239
2.3455
2.3296
2.31437
2.29967
2.28536
2.27147
2.2581
2.24546
2.23372
2.22308
2.21365
2.20549
2.19857
2.19281
2.18807
2.18415
2.18077
2.17771
2.17463
2.17103
2.16627
2.15921
2.14979
2.1391
2.12695
2.11341
2.09864
2.08288
2.06645
2.04966
2.03283
2.01626
2.00017
1.98473
1.9701
1.95634
1.9436
1.93186
1.9211
1.91133
1.90251
1.89458
1.88746
1.88107
1.87534
1.87024
1.86579
1.86213
1.85873
1.85499
1.85142
1.84826
1.84552
1.84323
1.84124
1.84014
1.83798
2.26875
2.34068
2.4455
2.46464
2.46381
2.46074
2.45551
2.44579
2.42637
2.40737
2.38761
2.36936
2.35253
2.33658
2.32126
2.30637
2.29173
2.2773
2.26311
2.24927
2.23593
2.22325
2.21139
2.20046
2.19055
2.1817
2.17388
2.16706
2.16112
2.1559
2.15122
2.14684
2.14242
2.1375
2.1315
2.12353
2.11406
2.10362
2.09208
2.0795
2.06599
2.05175
2.03701
2.022
2.007
1.99222
1.97787
1.96411
1.95107
1.93889
1.9276
1.91721
1.90774
1.89917
1.89143
1.88447
1.87823
1.87264
1.86767
1.86327
1.85943
1.85623
1.85387
1.8512
1.84825
1.84572
1.84374
1.84207
1.84112
1.83922
2.39205
2.4239
2.46748
2.46671
2.46473
2.46051
2.4515
2.43362
2.41385
2.39423
2.376
2.35929
2.34343
2.3282
2.31334
2.29865
2.28404
2.2695
2.25508
2.24087
2.227
2.2136
2.20078
2.18866
2.17733
2.16684
2.15724
2.14853
2.14066
2.13356
2.12711
2.12117
2.1155
2.10979
2.10364
2.09675
2.08808
2.07865
2.06853
2.05763
2.046
2.03372
2.02093
2.00779
1.9945
1.98126
1.96826
1.95568
1.94363
1.93228
1.92167
1.91186
1.90286
1.89468
1.88727
1.88057
1.87456
1.86919
1.86445
1.86032
1.85676
1.85374
1.85121
1.8496
1.84795
1.84565
1.8439
1.84257
1.84183
1.84031
2.45335
2.45672
2.46698
2.46668
2.46334
2.45625
2.44338
2.4201
2.40038
2.38215
2.36562
2.34996
2.33495
2.32027
2.30569
2.29112
2.27653
2.26191
2.24731
2.23283
2.21856
2.2046
2.19104
2.17799
2.16551
2.1537
2.14259
2.13224
2.12264
2.11377
2.10558
2.09798
2.09084
2.08396
2.07708
2.06995
2.06233
2.05322
2.0439
2.03414
2.02389
2.01318
2.00205
1.99062
1.97899
1.96734
1.95581
1.94456
1.93371
1.92341
1.91372
1.90468
1.89636
1.88874
1.8818
1.8755
1.86984
1.86481
1.8604
1.85663
1.85347
1.85088
1.84877
1.84712
1.84626
1.84508
1.84404
1.84266
1.84217
1.84123
2.46515
2.46498
2.46566
2.46478
2.46022
2.44845
2.42786
2.406
2.38761
2.37136
2.35607
2.34137
2.32697
2.31262
2.29823
2.28375
2.26916
2.25448
2.23976
2.22507
2.2105
2.19612
2.18199
2.16821
2.15483
2.14195
2.12961
2.11788
2.10679
2.09635
2.08655
2.07736
2.06871
2.06048
2.05253
2.0447
2.03679
2.02855
2.01928
2.01013
2.00075
1.99114
1.9813
1.97125
1.96109
1.95091
1.94082
1.93093
1.92138
1.91223
1.90362
1.89553
1.88804
1.88115
1.87484
1.8691
1.86393
1.85936
1.85541
1.85211
1.84946
1.84739
1.84583
1.84473
1.84399
1.84364
1.84335
1.84268
1.84223
1.84156
2.47094
2.4668
2.4653
2.46143
2.45221
2.43331
2.41142
2.39245
2.37646
2.3617
2.34742
2.33336
2.31931
2.30518
2.29091
2.27649
2.2619
2.24719
2.23238
2.21755
2.20276
2.18805
2.17349
2.15914
2.14506
2.13132
2.11799
2.10513
2.09279
2.08101
2.06979
2.05916
2.04908
2.0395
2.03036
2.02154
2.01296
2.00449
1.99571
1.98653
1.97759
1.96864
1.95965
1.95064
1.94164
1.93269
1.92388
1.91527
1.90697
1.89901
1.89153
1.8845
1.87797
1.87194
1.86639
1.86133
1.85679
1.85281
1.84944
1.84673
1.84471
1.84328
1.84242
1.84187
1.84179
1.84181
1.84189
1.84208
1.84198
1.84184
2.47287
2.46688
2.46215
2.45264
2.43623
2.41685
2.39748
2.38133
2.36693
2.35309
2.33941
2.32569
2.31186
2.29787
2.28369
2.26931
2.25474
2.24
2.22515
2.21022
2.19526
2.18031
2.16541
2.15062
2.13598
2.12158
2.10746
2.09369
2.08032
2.06742
2.05501
2.04312
2.03176
2.02093
2.01059
2.00072
1.99126
1.98215
1.97331
1.96409
1.95521
1.94653
1.93803
1.9297
1.92152
1.91353
1.90577
1.89826
1.8911
1.88426
1.87788
1.87192
1.8664
1.8613
1.85661
1.85233
1.84852
1.84524
1.84256
1.84055
1.83934
1.83866
1.83866
1.83871
1.83888
1.83926
1.84004
1.84081
1.84166
1.84182
2.47095
2.46105
2.45159
2.43827
2.42111
2.4029
2.38635
2.37192
2.35838
2.34509
2.33174
2.31823
2.30453
2.29064
2.27653
2.26219
2.24765
2.23292
2.21804
2.20305
2.18797
2.17283
2.15766
2.14252
2.12745
2.11252
2.09777
2.08327
2.06908
2.05526
2.04185
2.0289
2.01645
2.0045
1.99308
1.98218
1.97179
1.9619
1.95246
1.94339
1.93411
1.92547
1.91715
1.90918
1.90153
1.89421
1.88724
1.88062
1.87441
1.86858
1.8632
1.85825
1.85373
1.84957
1.84577
1.84233
1.83931
1.83681
1.83493
1.83377
1.83361
1.83368
1.8339
1.83448
1.83566
1.83711
1.83831
1.83934
1.84076
1.8416
2.46219
2.45014
2.43805
2.42354
2.40742
2.39136
2.3768
2.36334
2.35037
2.3374
2.32424
2.31086
2.29727
2.28346
2.26942
2.25514
2.24063
2.22592
2.21103
2.19599
2.18082
2.16553
2.15016
2.13475
2.11933
2.10397
2.08873
2.07365
2.05879
2.04423
2.03001
2.01618
2.00281
1.98992
1.97755
1.96571
1.95444
1.94374
1.93362
1.92406
1.91468
1.90583
1.89747
1.88962
1.88225
1.87536
1.86894
1.863
1.85753
1.85256
1.84806
1.84403
1.84042
1.83717
1.83424
1.83163
1.82943
1.82779
1.82689
1.82691
1.82704
1.82748
1.82852
1.83063
1.83286
1.83457
1.83613
1.83764
1.83951
1.84078
2.44926
2.4371
2.42438
2.41048
2.39583
2.38153
2.36809
2.35529
2.34266
2.32987
2.31683
2.30356
2.29006
2.27633
2.26235
2.24813
2.23367
2.21899
2.2041
2.18903
2.17378
2.15837
2.14283
2.1272
2.11151
2.09581
2.08017
2.06462
2.04923
2.03407
2.01919
2.00466
1.99052
1.97684
1.96366
1.95102
1.93896
1.92751
1.9167
1.90654
1.89703
1.88774
1.87923
1.87135
1.86407
1.85741
1.85134
1.8459
1.84101
1.83671
1.83295
1.82972
1.82694
1.82451
1.82237
1.82056
1.81922
1.81863
1.81868
1.81889
1.81952
1.82098
1.82394
1.82716
1.82961
1.83172
1.83382
1.83589
1.83825
1.84002
2.43438
2.42587
2.41274
2.39938
2.38587
2.37265
2.35994
2.34754
2.33508
2.32239
2.30946