/*--------------------------------*- C++ -*----------------------------------*\
  =========                 |
  \\      /  F ield         | OpenFOAM: The Open Source CFD Toolbox
   \\    /   O peration     | Website:  https://openfoam.org
    \\  /    A nd           | Version:  9
     \\/     M anipulation  |
\*---------------------------------------------------------------------------*/
FoamFile
{
    format      ascii;
    class       surfaceScalarField;
    location    "0.003";
    object      phi;
}
// * * * * * * * * * * * * * * * * * * * * * * * * * * * * * * * * * * * * * //

dimensions      [1 0 -1 0 0 0 0];

internalField   nonuniform List<scalar> 
72280
(
1.12235e-05
-6.49529e-19
1.12235e-05
-1.1994e-18
1.12235e-05
-1.57369e-18
1.12235e-05
-2.09371e-18
1.12235e-05
-2.61416e-18
1.12235e-05
-3.60975e-18
1.12235e-05
-4.95623e-18
1.12235e-05
-6.44453e-18
1.12235e-05
-7.99926e-18
1.12235e-05
-1.0322e-17
1.12235e-05
-1.33645e-17
1.12235e-05
-1.72817e-17
1.12235e-05
-2.25394e-17
1.12235e-05
-2.97127e-17
1.12235e-05
-3.9143e-17
1.12235e-05
-5.12754e-17
1.12235e-05
-6.73287e-17
1.12235e-05
-8.87616e-17
1.12235e-05
-1.16158e-16
1.12235e-05
-1.51721e-16
1.12235e-05
-2.02681e-16
1.12235e-05
-2.75604e-16
1.12235e-05
-3.71951e-16
1.12235e-05
-4.98669e-16
1.12235e-05
-6.94172e-16
1.12235e-05
-9.85701e-16
1.12235e-05
-1.37555e-15
1.12235e-05
-1.88061e-15
1.12235e-05
-2.58281e-15
1.12235e-05
-3.64619e-15
1.12235e-05
-5.15741e-15
1.12235e-05
-7.03202e-15
1.12235e-05
-9.60323e-15
1.12235e-05
-1.32529e-14
1.12235e-05
-1.84413e-14
1.12235e-05
-2.58779e-14
1.12235e-05
-3.55402e-14
1.12235e-05
-5.11984e-14
1.12235e-05
-7.22193e-14
1.12235e-05
-1.03112e-13
1.12235e-05
-1.49939e-13
1.12235e-05
-2.1521e-13
1.12235e-05
-3.02495e-13
1.12235e-05
-4.10472e-13
1.12235e-05
-5.39167e-13
1.12235e-05
-6.73557e-13
1.12235e-05
-8.59793e-13
1.12235e-05
-1.17518e-12
1.12235e-05
-1.66254e-12
1.12235e-05
-2.43577e-12
1.12235e-05
-3.42779e-12
1.12235e-05
-4.939e-12
1.12235e-05
-6.60393e-12
1.12235e-05
-8.89595e-12
1.12235e-05
-1.12178e-11
1.12235e-05
-1.49454e-11
1.12234e-05
-1.78567e-11
1.12234e-05
-2.02431e-11
1.12234e-05
-2.04891e-11
-1.24229e-11
1.12234e-05
1.12235e-05
-3.41606e-19
1.12235e-05
-1.17555e-18
1.12235e-05
-1.56597e-18
1.12235e-05
-1.99934e-18
1.12235e-05
-2.66409e-18
1.12235e-05
-3.43089e-18
1.12235e-05
-4.50199e-18
1.12235e-05
-5.69451e-18
1.12235e-05
-7.35049e-18
1.12235e-05
-9.42775e-18
1.12235e-05
-1.19426e-17
1.12235e-05
-1.5407e-17
1.12235e-05
-1.97764e-17
1.12235e-05
-2.51247e-17
1.12235e-05
-3.17778e-17
1.12235e-05
-3.93703e-17
1.12235e-05
-4.75945e-17
1.12235e-05
-5.65366e-17
1.12235e-05
-6.85624e-17
1.12235e-05
-8.73117e-17
1.12235e-05
-1.0658e-16
1.12235e-05
-1.16782e-16
1.12235e-05
-1.24007e-16
1.12235e-05
-1.38079e-16
1.12235e-05
-1.41342e-16
1.12235e-05
-1.29286e-16
1.12235e-05
-1.25295e-16
1.12235e-05
-1.75781e-16
1.12235e-05
-2.74916e-16
1.12235e-05
-2.99138e-16
1.12235e-05
-9.40203e-17
1.12235e-05
5.05089e-16
1.12235e-05
1.72612e-15
1.12235e-05
3.93477e-15
1.12235e-05
7.48004e-15
1.12235e-05
1.27136e-14
1.12235e-05
1.93506e-14
1.12235e-05
3.18686e-14
1.12235e-05
4.94788e-14
1.12235e-05
7.4909e-14
1.12235e-05
1.13165e-13
1.12235e-05
1.69198e-13
1.12235e-05
2.44051e-13
1.12235e-05
3.37029e-13
1.12235e-05
4.50496e-13
1.12235e-05
5.6653e-13
1.12235e-05
7.26241e-13
1.12235e-05
1.01056e-12
1.12234e-05
1.42922e-12
1.12234e-05
2.04685e-12
1.12234e-05
2.76557e-12
1.12234e-05
3.88516e-12
1.12234e-05
4.96094e-12
1.12233e-05
6.34032e-12
1.12233e-05
7.52258e-12
1.12231e-05
9.53228e-12
1.12233e-05
1.0359e-11
1.12233e-05
1.26363e-11
1.12232e-05
1.40008e-11
7.36384e-12
1.12231e-05
1.12235e-05
-2.78237e-19
1.12235e-05
-8.90589e-19
1.12235e-05
-1.34093e-18
1.12235e-05
-1.63608e-18
1.12235e-05
-2.17848e-18
1.12235e-05
-2.99989e-18
1.12235e-05
-3.78188e-18
1.12235e-05
-4.95498e-18
1.12235e-05
-6.42367e-18
1.12235e-05
-8.22742e-18
1.12235e-05
-1.0634e-17
1.12235e-05
-1.34222e-17
1.12235e-05
-1.67366e-17
1.12235e-05
-2.06479e-17
1.12235e-05
-2.50541e-17
1.12235e-05
-3.0163e-17
1.12235e-05
-3.52793e-17
1.12235e-05
-4.04791e-17
1.12235e-05
-4.7873e-17
1.12235e-05
-5.99214e-17
1.12235e-05
-7.01063e-17
1.12235e-05
-6.8752e-17
1.12235e-05
-6.0538e-17
1.12235e-05
-5.30648e-17
1.12235e-05
-2.27462e-17
1.12235e-05
3.61695e-17
1.12235e-05
8.0596e-17
1.12235e-05
7.56491e-17
1.12235e-05
6.21388e-17
1.12235e-05
2.10754e-16
1.12235e-05
6.91669e-16
1.12235e-05
1.5299e-15
1.12235e-05
2.97044e-15
1.12235e-05
5.48811e-15
1.12235e-05
9.46827e-15
1.12235e-05
1.55772e-14
1.12235e-05
2.35599e-14
1.12235e-05
3.75182e-14
1.12235e-05
5.69276e-14
1.12235e-05
8.5877e-14
1.12235e-05
1.29738e-13
1.12235e-05
1.90499e-13
1.12235e-05
2.6972e-13
1.12235e-05
3.65959e-13
1.12235e-05
4.82082e-13
1.12235e-05
6.01468e-13
1.12235e-05
7.59032e-13
1.12235e-05
1.02412e-12
1.12235e-05
1.42669e-12
1.12235e-05
2.03072e-12
1.12235e-05
2.74316e-12
1.12235e-05
3.8073e-12
1.12235e-05
4.89247e-12
1.12235e-05
6.35335e-12
1.12234e-05
7.95109e-12
1.12234e-05
1.11489e-11
1.12234e-05
1.27495e-11
1.12234e-05
1.4167e-11
1.12234e-05
1.46793e-11
8.76213e-12
1.12233e-05
1.12235e-05
-2.66908e-19
1.12235e-05
-8.24904e-19
1.12235e-05
-1.07011e-18
1.12235e-05
-1.36662e-18
1.12235e-05
-1.88703e-18
1.12235e-05
-2.65198e-18
1.12235e-05
-3.5014e-18
1.12235e-05
-4.68812e-18
1.12235e-05
-6.27572e-18
1.12235e-05
-8.44888e-18
1.12235e-05
-1.07809e-17
1.12235e-05
-1.32677e-17
1.12235e-05
-1.58643e-17
1.12235e-05
-1.83514e-17
1.12235e-05
-2.04632e-17
1.12235e-05
-2.22143e-17
1.12235e-05
-2.30197e-17
1.12235e-05
-2.18676e-17
1.12235e-05
-1.90291e-17
1.12235e-05
-1.58973e-17
1.12235e-05
-9.23636e-18
1.12235e-05
8.91063e-18
1.12235e-05
4.16377e-17
1.12235e-05
8.94443e-17
1.12235e-05
1.62487e-16
1.12235e-05
2.74311e-16
1.12235e-05
4.13808e-16
1.12235e-05
5.69784e-16
1.12235e-05
7.67186e-16
1.12235e-05
1.13242e-15
1.12235e-05
1.77264e-15
1.12235e-05
2.72059e-15
1.12235e-05
4.08491e-15
1.12235e-05
6.26343e-15
1.12235e-05
9.54924e-15
1.12235e-05
1.45627e-14
1.12235e-05
2.12812e-14
1.12235e-05
3.08332e-14
1.12235e-05
4.36967e-14
1.12235e-05
6.15235e-14
1.12235e-05
8.58654e-14
1.12235e-05
1.15386e-13
1.12235e-05
1.52107e-13
1.12235e-05
1.94081e-13
1.12235e-05
2.38769e-13
1.12235e-05
2.81347e-13
1.12235e-05
3.24853e-13
1.12235e-05
3.75652e-13
1.12235e-05
4.57626e-13
1.12235e-05
5.93177e-13
1.12235e-05
7.83556e-13
1.12235e-05
1.04253e-12
1.12235e-05
1.35756e-12
1.12235e-05
1.76319e-12
1.12235e-05
2.23351e-12
1.12234e-05
3.19189e-12
1.12234e-05
3.72388e-12
1.12234e-05
3.49949e-12
1.12234e-05
1.98099e-12
-1.84325e-12
1.12234e-05
1.12235e-05
-1.66998e-19
1.12235e-05
-5.754e-19
1.12235e-05
-1.02155e-18
1.12235e-05
-1.33597e-18
1.12235e-05
-1.82438e-18
1.12235e-05
-2.67906e-18
1.12235e-05
-3.69894e-18
1.12235e-05
-5.17593e-18
1.12235e-05
-7.11893e-18
1.12235e-05
-9.44222e-18
1.12235e-05
-1.20279e-17
1.12235e-05
-1.47108e-17
1.12235e-05
-1.72016e-17
1.12235e-05
-1.90484e-17
1.12235e-05
-2.01684e-17
1.12235e-05
-2.10975e-17
1.12235e-05
-2.19743e-17
1.12235e-05
-2.16437e-17
1.12235e-05
-1.95619e-17
1.12235e-05
-1.60358e-17
1.12235e-05
-1.04275e-17
1.12235e-05
1.60956e-18
1.12235e-05
2.3059e-17
1.12235e-05
5.32774e-17
1.12235e-05
9.53028e-17
1.12235e-05
1.67581e-16
1.12235e-05
2.80965e-16
1.12235e-05
4.25873e-16
1.12235e-05
6.06899e-16
1.12235e-05
9.01205e-16
1.12235e-05
1.37176e-15
1.12235e-05
2.02957e-15
1.12235e-05
2.89256e-15
1.12235e-05
4.18369e-15
1.12235e-05
6.08639e-15
1.12235e-05
9.08301e-15
1.12235e-05
1.33372e-14
1.12235e-05
1.90729e-14
1.12235e-05
2.68851e-14
1.12235e-05
3.67969e-14
1.12235e-05
4.96037e-14
1.12235e-05
6.46974e-14
1.12235e-05
8.41477e-14
1.12235e-05
1.07088e-13
1.12235e-05
1.28786e-13
1.12235e-05
1.41981e-13
1.12235e-05
1.44166e-13
1.12235e-05
1.35735e-13
1.12235e-05
1.26376e-13
1.12235e-05
1.27694e-13
1.12235e-05
1.51975e-13
1.12235e-05
1.77309e-13
1.12235e-05
1.9606e-13
1.12235e-05
1.90768e-13
1.12235e-05
2.92596e-14
1.12235e-05
-2.25257e-13
1.12234e-05
-7.06889e-13
1.12234e-05
-2.24318e-12
1.12234e-05
-6.00366e-12
-1.18543e-11
1.12234e-05
1.12235e-05
-7.10978e-20
1.12235e-05
-5.04646e-19
1.12235e-05
-9.38923e-19
1.12235e-05
-1.33952e-18
1.12235e-05
-1.96397e-18
1.12235e-05
-2.98684e-18
1.12235e-05
-4.3344e-18
1.12235e-05
-6.18609e-18
1.12235e-05
-8.33029e-18
1.12235e-05
-1.09664e-17
1.12235e-05
-1.38717e-17
1.12235e-05
-1.68673e-17
1.12235e-05
-1.95991e-17
1.12235e-05
-2.15942e-17
1.12235e-05
-2.28893e-17
1.12235e-05
-2.41096e-17
1.12235e-05
-2.59302e-17
1.12235e-05
-2.81116e-17
1.12235e-05
-3.03612e-17
1.12235e-05
-3.31312e-17
1.12235e-05
-3.7661e-17
1.12235e-05
-4.47317e-17
1.12235e-05
-5.69815e-17
1.12235e-05
-7.89669e-17
1.12235e-05
-1.12967e-16
1.12235e-05
-1.49059e-16
1.12235e-05
-1.79987e-16
1.12235e-05
-2.21961e-16
1.12235e-05
-2.83933e-16
1.12235e-05
-3.45682e-16
1.12235e-05
-4.10671e-16
1.12235e-05
-5.48259e-16
1.12235e-05
-8.18174e-16
1.12235e-05
-1.24093e-15
1.12235e-05
-1.8161e-15
1.12235e-05
-2.39082e-15
1.12235e-05
-2.90556e-15
1.12235e-05
-3.63872e-15
1.12235e-05
-4.87441e-15
1.12235e-05
-7.11957e-15
1.12235e-05
-1.02008e-14
1.12235e-05
-1.38403e-14
1.12235e-05
-1.80216e-14
1.12235e-05
-2.32617e-14
1.12235e-05
-3.4888e-14
1.12235e-05
-6.01353e-14
1.12235e-05
-1.05029e-13
1.12235e-05
-1.78732e-13
1.12235e-05
-2.90621e-13
1.12235e-05
-4.51429e-13
1.12235e-05
-6.53426e-13
1.12235e-05
-9.3975e-13
1.12235e-05
-1.34362e-12
1.12235e-05
-1.87992e-12
1.12235e-05
-2.71524e-12
1.12235e-05
-4.12612e-12
1.12234e-05
-6.49827e-12
1.12234e-05
-1.0337e-11
1.12234e-05
-1.62117e-11
-2.1743e-11
1.12234e-05
1.12235e-05
-8.60268e-20
1.12235e-05
-2.40015e-19
1.12235e-05
-6.66747e-19
1.12235e-05
-1.19892e-18
1.12235e-05
-2.26106e-18
1.12235e-05
-3.34499e-18
1.12235e-05
-4.96463e-18
1.12235e-05
-7.21744e-18
1.12235e-05
-9.75947e-18
1.12235e-05
-1.24606e-17
1.12235e-05
-1.55189e-17
1.12235e-05
-1.86803e-17
1.12235e-05
-2.16893e-17
1.12235e-05
-2.4443e-17
1.12235e-05
-2.71265e-17
1.12235e-05
-3.02474e-17
1.12235e-05
-3.45354e-17
1.12235e-05
-4.09267e-17
1.12235e-05
-5.00467e-17
1.12235e-05
-6.31044e-17
1.12235e-05
-8.2387e-17
1.12235e-05
-1.10913e-16
1.12235e-05
-1.5407e-16
1.12235e-05
-2.19538e-16
1.12235e-05
-3.14805e-16
1.12235e-05
-4.3927e-16
1.12235e-05
-5.95105e-16
1.12235e-05
-8.05071e-16
1.12235e-05
-1.09349e-15
1.12235e-05
-1.49042e-15
1.12235e-05
-2.05383e-15
1.12235e-05
-2.88377e-15
1.12235e-05
-4.09297e-15
1.12235e-05
-5.83762e-15
1.12235e-05
-8.28865e-15
1.12235e-05
-1.15345e-14
1.12235e-05
-1.58031e-14
1.12235e-05
-2.18262e-14
1.12235e-05
-3.04302e-14
1.12235e-05
-4.25518e-14
1.12235e-05
-5.8407e-14
1.12235e-05
-7.74778e-14
1.12235e-05
-1.01539e-13
1.12235e-05
-1.32776e-13
1.12235e-05
-1.76242e-13
1.12235e-05
-2.3948e-13
1.12235e-05
-3.31318e-13
1.12235e-05
-4.62768e-13
1.12235e-05
-6.53705e-13
1.12235e-05
-9.37614e-13
1.12235e-05
-1.29375e-12
1.12235e-05
-1.72799e-12
1.12235e-05
-2.33296e-12
1.12235e-05
-3.04934e-12
1.12234e-05
-3.95859e-12
1.12234e-05
-5.66112e-12
1.12234e-05
-9.2108e-12
1.12234e-05
-1.49312e-11
1.12234e-05
-2.33001e-11
-3.19964e-11
1.12233e-05
1.12235e-05
5.77041e-21
1.12235e-05
-3.4825e-19
1.12235e-05
-8.29338e-19
1.12235e-05
-1.40909e-18
1.12235e-05
-2.36527e-18
1.12235e-05
-3.79947e-18
1.12235e-05
-5.70834e-18
1.12235e-05
-7.96805e-18
1.12235e-05
-1.04759e-17
1.12235e-05
-1.33503e-17
1.12235e-05
-1.63858e-17
1.12235e-05
-1.95773e-17
1.12235e-05
-2.31722e-17
1.12235e-05
-2.71166e-17
1.12235e-05
-3.16312e-17
1.12235e-05
-3.72669e-17
1.12235e-05
-4.47172e-17
1.12235e-05
-5.54501e-17
1.12235e-05
-7.12535e-17
1.12235e-05
-9.50068e-17
1.12235e-05
-1.30083e-16
1.12235e-05
-1.79417e-16
1.12235e-05
-2.48228e-16
1.12235e-05
-3.47441e-16
1.12235e-05
-4.89721e-16
1.12235e-05
-6.83351e-16
1.12235e-05
-9.4846e-16
1.12235e-05
-1.31844e-15
1.12235e-05
-1.81701e-15
1.12235e-05
-2.52419e-15
1.12235e-05
-3.54336e-15
1.12235e-05
-4.94042e-15
1.12235e-05
-6.85919e-15
1.12235e-05
-9.5354e-15
1.12235e-05
-1.33539e-14
1.12235e-05
-1.85984e-14
1.12235e-05
-2.57433e-14
1.12235e-05
-3.59528e-14
1.12235e-05
-5.01106e-14
1.12235e-05
-6.86642e-14
1.12235e-05
-9.28684e-14
1.12235e-05
-1.24341e-13
1.12235e-05
-1.65213e-13
1.12235e-05
-2.19037e-13
1.12235e-05
-2.89877e-13
1.12235e-05
-3.88914e-13
1.12235e-05
-5.25871e-13
1.12235e-05
-7.20799e-13
1.12235e-05
-9.97149e-13
1.12235e-05
-1.34861e-12
1.12235e-05
-1.82596e-12
1.12235e-05
-2.46284e-12
1.12235e-05
-3.20617e-12
1.12235e-05
-4.02729e-12
1.12234e-05
-4.93983e-12
1.12234e-05
-6.34146e-12
1.12234e-05
-9.37217e-12
1.12234e-05
-1.49501e-11
1.12234e-05
-2.62371e-11
-4.31999e-11
1.12233e-05
1.12235e-05
-1.43043e-19
1.12235e-05
-5.45701e-19
1.12235e-05
-1.05875e-18
1.12235e-05
-1.76264e-18
1.12235e-05
-2.67005e-18
1.12235e-05
-4.23276e-18
1.12235e-05
-6.22946e-18
1.12235e-05
-8.43588e-18
1.12235e-05
-1.09837e-17
1.12235e-05
-1.3637e-17
1.12235e-05
-1.6561e-17
1.12235e-05
-1.99859e-17
1.12235e-05
-2.40301e-17
1.12235e-05
-2.94021e-17
1.12235e-05
-3.65849e-17
1.12235e-05
-4.58908e-17
1.12235e-05
-5.83661e-17
1.12235e-05
-7.53897e-17
1.12235e-05
-9.94534e-17
1.12235e-05
-1.34232e-16
1.12235e-05
-1.84672e-16
1.12235e-05
-2.55482e-16
1.12235e-05
-3.527e-16
1.12235e-05
-4.85852e-16
1.12235e-05
-6.68563e-16
1.12235e-05
-9.2182e-16
1.12235e-05
-1.27328e-15
1.12235e-05
-1.75111e-15
1.12235e-05
-2.41127e-15
1.12235e-05
-3.34313e-15
1.12235e-05
-4.64555e-15
1.12235e-05
-6.433e-15
1.12235e-05
-8.89503e-15
1.12235e-05
-1.2309e-14
1.12235e-05
-1.70751e-14
1.12235e-05
-2.37314e-14
1.12235e-05
-3.29403e-14
1.12235e-05
-4.55842e-14
1.12235e-05
-6.30012e-14
1.12235e-05
-8.67073e-14
1.12235e-05
-1.18888e-13
1.12235e-05
-1.62927e-13
1.12235e-05
-2.22499e-13
1.12235e-05
-3.01025e-13
1.12235e-05
-4.04528e-13
1.12235e-05
-5.51691e-13
1.12235e-05
-7.62161e-13
1.12235e-05
-1.06045e-12
1.12235e-05
-1.47126e-12
1.12235e-05
-2.02258e-12
1.12235e-05
-2.77712e-12
1.12235e-05
-3.76477e-12
1.12235e-05
-4.98635e-12
1.12235e-05
-6.60616e-12
1.12235e-05
-8.98153e-12
1.12234e-05
-1.30844e-11
1.12234e-05
-2.02782e-11
1.12234e-05
-3.0962e-11
1.12234e-05
-5.02427e-11
-7.40466e-11
1.12233e-05
1.12235e-05
-9.8997e-20
1.12235e-05
-5.85445e-19
1.12235e-05
-1.19833e-18
1.12235e-05
-1.94374e-18
1.12235e-05
-3.01173e-18
1.12235e-05
-4.52453e-18
1.12235e-05
-6.36409e-18
1.12235e-05
-8.65866e-18
1.12235e-05
-1.09686e-17
1.12235e-05
-1.3451e-17
1.12235e-05
-1.63549e-17
1.12235e-05
-2.00235e-17
1.12235e-05
-2.49922e-17
1.12235e-05
-3.1905e-17
1.12235e-05
-4.15328e-17
1.12235e-05
-5.48329e-17
1.12235e-05
-7.29562e-17
1.12235e-05
-9.7172e-17
1.12235e-05
-1.29799e-16
1.12235e-05
-1.75411e-16
1.12235e-05
-2.41024e-16
1.12235e-05
-3.35111e-16
1.12235e-05
-4.65785e-16
1.12235e-05
-6.40687e-16
1.12235e-05
-8.71365e-16
1.12235e-05
-1.18015e-15
1.12235e-05
-1.59902e-15
1.12235e-05
-2.16391e-15
1.12235e-05
-2.93746e-15
1.12235e-05
-4.01805e-15
1.12235e-05
-5.52225e-15
1.12235e-05
-7.59548e-15
1.12235e-05
-1.04586e-14
1.12235e-05
-1.4425e-14
1.12235e-05
-1.99309e-14
1.12235e-05
-2.75848e-14
1.12235e-05
-3.81882e-14
1.12235e-05
-5.2703e-14
1.12235e-05
-7.28518e-14
1.12235e-05
-1.0083e-13
1.12235e-05
-1.39557e-13
1.12235e-05
-1.93528e-13
1.12235e-05
-2.68198e-13
1.12235e-05
-3.67891e-13
1.12235e-05
-5.03109e-13
1.12235e-05
-7.00303e-13
1.12235e-05
-9.87812e-13
1.12235e-05
-1.38925e-12
1.12235e-05
-1.95379e-12
1.12235e-05
-2.74564e-12
1.12235e-05
-3.84424e-12
1.12235e-05
-5.3312e-12
1.12235e-05
-7.32594e-12
1.12235e-05
-1.01623e-11
1.12235e-05
-1.46605e-11
1.12234e-05
-2.22175e-11
1.12234e-05
-3.46901e-11
1.12234e-05
-5.19936e-11
1.12234e-05
-8.53222e-11
-1.26607e-10
1.12233e-05
1.12235e-05
-1.53445e-19
1.12235e-05
-6.6901e-19
1.12235e-05
-1.28173e-18
1.12235e-05
-1.95323e-18
1.12235e-05
-3.02183e-18
1.12235e-05
-4.54407e-18
1.12235e-05
-6.47514e-18
1.12235e-05
-8.31332e-18
1.12235e-05
-1.04912e-17
1.12235e-05
-1.29515e-17
1.12235e-05
-1.60053e-17
1.12235e-05
-1.99977e-17
1.12235e-05
-2.55174e-17
1.12235e-05
-3.36243e-17
1.12235e-05
-4.54071e-17
1.12235e-05
-6.20244e-17
1.12235e-05
-8.46116e-17
1.12235e-05
-1.14355e-16
1.12235e-05
-1.53544e-16
1.12235e-05
-2.06466e-16
1.12235e-05
-2.80968e-16
1.12235e-05
-3.88659e-16
1.12235e-05
-5.41779e-16
1.12235e-05
-7.48113e-16
1.12235e-05
-1.01418e-15
1.12235e-05
-1.35786e-15
1.12235e-05
-1.81047e-15
1.12235e-05
-2.41523e-15
1.12235e-05
-3.24403e-15
1.12235e-05
-4.41277e-15
1.12235e-05
-6.05118e-15
1.12235e-05
-8.34716e-15
1.12235e-05
-1.15698e-14
1.12235e-05
-1.60422e-14
1.12235e-05
-2.21724e-14
1.12235e-05
-3.0503e-14
1.12235e-05
-4.17991e-14
1.12235e-05
-5.71366e-14
1.12235e-05
-7.82558e-14
1.12235e-05
-1.07946e-13
1.12235e-05
-1.50316e-13
1.12235e-05
-2.09872e-13
1.12235e-05
-2.9205e-13
1.12235e-05
-4.03411e-13
1.12235e-05
-5.55236e-13
1.12235e-05
-7.66783e-13
1.12235e-05
-1.0712e-12
1.12235e-05
-1.49097e-12
1.12235e-05
-2.05148e-12
1.12235e-05
-2.84993e-12
1.12235e-05
-3.96213e-12
1.12235e-05
-5.53711e-12
1.12234e-05
-7.84847e-12
1.12234e-05
-1.11915e-11
1.12234e-05
-1.59631e-11
1.12234e-05
-2.27321e-11
1.12234e-05
-3.4316e-11
1.12234e-05
-5.65435e-11
1.12233e-05
-1.08069e-10
-1.8446e-10
1.12231e-05
1.12235e-05
-1.8828e-19
1.12235e-05
-8.32303e-19
1.12235e-05
-1.34815e-18
1.12235e-05
-2.00924e-18
1.12235e-05
-3.15164e-18
1.12235e-05
-4.50569e-18
1.12235e-05
-6.11144e-18
1.12235e-05
-7.92807e-18
1.12235e-05
-1.00443e-17
1.12235e-05
-1.27087e-17
1.12235e-05
-1.62709e-17
1.12235e-05
-2.12792e-17
1.12235e-05
-2.82766e-17
1.12235e-05
-3.84392e-17
1.12235e-05
-5.31172e-17
1.12235e-05
-7.40005e-17
1.12235e-05
-1.02344e-16
1.12235e-05
-1.39331e-16
1.12235e-05
-1.87487e-16
1.12235e-05
-2.51539e-16
1.12235e-05
-3.40243e-16
1.12235e-05
-4.68377e-16
1.12235e-05
-6.51358e-16
1.12235e-05
-8.96359e-16
1.12235e-05
-1.21093e-15
1.12235e-05
-1.6174e-15
1.12235e-05
-2.14561e-15
1.12235e-05
-2.83683e-15
1.12235e-05
-3.76969e-15
1.12235e-05
-5.05247e-15
1.12235e-05
-6.82379e-15
1.12235e-05
-9.32753e-15
1.12235e-05
-1.28767e-14
1.12235e-05
-1.78626e-14
1.12235e-05
-2.47147e-14
1.12235e-05
-3.40676e-14
1.12235e-05
-4.6804e-14
1.12235e-05
-6.43291e-14
1.12235e-05
-8.85549e-14
1.12235e-05
-1.22571e-13
1.12235e-05
-1.71149e-13
1.12235e-05
-2.40028e-13
1.12235e-05
-3.36453e-13
1.12235e-05
-4.70373e-13
1.12235e-05
-6.54906e-13
1.12235e-05
-9.09737e-13
1.12235e-05
-1.26552e-12
1.12235e-05
-1.75739e-12
1.12235e-05
-2.4317e-12
1.12235e-05
-3.37742e-12
1.12235e-05
-4.72433e-12
1.12235e-05
-6.60189e-12
1.12234e-05
-9.36301e-12
1.12234e-05
-1.33897e-11
1.12234e-05
-1.88725e-11
1.12234e-05
-2.64461e-11
1.12234e-05
-4.01479e-11
1.12233e-05
-7.08553e-11
1.12232e-05
-1.48052e-10
-2.73966e-10
1.12229e-05
1.12235e-05
-2.21605e-19
1.12235e-05
-6.81491e-19
1.12235e-05
-1.2271e-18
1.12235e-05
-2.12723e-18
1.12235e-05
-3.21616e-18
1.12235e-05
-4.26322e-18
1.12235e-05
-5.54042e-18
1.12235e-05
-7.28812e-18
1.12235e-05
-9.65639e-18
1.12235e-05
-1.27001e-17
1.12235e-05
-1.69218e-17
1.12235e-05
-2.3106e-17
1.12235e-05
-3.1988e-17
1.12235e-05
-4.48961e-17
1.12235e-05
-6.30551e-17
1.12235e-05
-8.79623e-17
1.12235e-05
-1.21436e-16
1.12235e-05
-1.65749e-16
1.12235e-05
-2.24005e-16
1.12235e-05
-3.01595e-16
1.12235e-05
-4.08366e-16
1.12235e-05
-5.6067e-16
1.12235e-05
-7.7467e-16
1.12235e-05
-1.063e-15
1.12235e-05
-1.44206e-15
1.12235e-05
-1.94176e-15
1.12235e-05
-2.60104e-15
1.12235e-05
-3.47354e-15
1.12235e-05
-4.65491e-15
1.12235e-05
-6.2838e-15
1.12235e-05
-8.55616e-15
1.12235e-05
-1.17758e-14
1.12235e-05
-1.63294e-14
1.12235e-05
-2.27637e-14
1.12235e-05
-3.1649e-14
1.12235e-05
-4.39731e-14
1.12235e-05
-6.09773e-14
1.12235e-05
-8.48013e-14
1.12235e-05
-1.18369e-13
1.12235e-05
-1.66003e-13
1.12235e-05
-2.33898e-13
1.12235e-05
-3.3175e-13
1.12235e-05
-4.71368e-13
1.12235e-05
-6.67631e-13
1.12235e-05
-9.43249e-13
1.12235e-05
-1.33581e-12
1.12235e-05
-1.89031e-12
1.12235e-05
-2.66717e-12
1.12235e-05
-3.76506e-12
1.12235e-05
-5.32367e-12
1.12235e-05
-7.52513e-12
1.12235e-05
-1.06131e-11
1.12234e-05
-1.51196e-11
1.12234e-05
-2.16179e-11
1.12234e-05
-3.11418e-11
1.12234e-05
-4.72093e-11
1.12234e-05
-7.67769e-11
1.12233e-05
-1.34238e-10
1.12231e-05
-2.61855e-10
-4.612e-10
1.12226e-05
1.12235e-05
-1.48297e-19
1.12235e-05
-6.38041e-19
1.12235e-05
-1.26416e-18
1.12235e-05
-1.93124e-18
1.12235e-05
-2.75348e-18
1.12235e-05
-3.80675e-18
1.12235e-05
-4.99914e-18
1.12235e-05
-6.6313e-18
1.12235e-05
-9.01697e-18
1.12235e-05
-1.25422e-17
1.12235e-05
-1.76487e-17
1.12235e-05
-2.5109e-17
1.12235e-05
-3.60411e-17
1.12235e-05
-5.15216e-17
1.12235e-05
-7.27335e-17
1.12235e-05
-1.01354e-16
1.12235e-05
-1.39435e-16
1.12235e-05
-1.89993e-16
1.12235e-05
-2.57436e-16
1.12235e-05
-3.49346e-16
1.12235e-05
-4.7749e-16
1.12235e-05
-6.57846e-16
1.12235e-05
-9.05341e-16
1.12235e-05
-1.23951e-15
1.12235e-05
-1.6887e-15
1.12235e-05
-2.29196e-15
1.12235e-05
-3.1073e-15
1.12235e-05
-4.2133e-15
1.12235e-05
-5.71613e-15
1.12235e-05
-7.765e-15
1.12235e-05
-1.06047e-14
1.12235e-05
-1.45428e-14
1.12235e-05
-2.00886e-14
1.12235e-05
-2.79413e-14
1.12235e-05
-3.89589e-14
1.12235e-05
-5.47108e-14
1.12235e-05
-7.70183e-14
1.12235e-05
-1.08568e-13
1.12235e-05
-1.53985e-13
1.12235e-05
-2.18729e-13
1.12235e-05
-3.10712e-13
1.12235e-05
-4.44159e-13
1.12235e-05
-6.34808e-13
1.12235e-05
-9.04846e-13
1.12235e-05
-1.29474e-12
1.12235e-05
-1.85576e-12
1.12235e-05
-2.6419e-12
1.12235e-05
-3.74058e-12
1.12235e-05
-5.3347e-12
1.12235e-05
-7.62295e-12
1.12235e-05
-1.08129e-11
1.12234e-05
-1.53374e-11
1.12234e-05
-2.19333e-11
1.12234e-05
-3.15014e-11
1.12234e-05
-4.67069e-11
1.12234e-05
-7.40613e-11
1.12233e-05
-1.2571e-10
1.12231e-05
-2.24558e-10
1.12228e-05
-4.37641e-10
-7.69849e-10
1.1222e-05
1.12235e-05
-1.82456e-19
1.12235e-05
-4.74391e-19
1.12235e-05
-9.36885e-19
1.12235e-05
-1.44603e-18
1.12235e-05
-2.12981e-18
1.12235e-05
-3.13462e-18
1.12235e-05
-4.43823e-18
1.12235e-05
-6.09848e-18
1.12235e-05
-8.53837e-18
1.12235e-05
-1.23933e-17
1.12235e-05
-1.82509e-17
1.12235e-05
-2.69927e-17
1.12235e-05
-3.94978e-17
1.12235e-05
-5.69655e-17
1.12235e-05
-8.0645e-17
1.12235e-05
-1.12414e-16
1.12235e-05
-1.54821e-16
1.12235e-05
-2.11965e-16
1.12235e-05
-2.90099e-16
1.12235e-05
-3.99271e-16
1.12235e-05
-5.53612e-16
1.12235e-05
-7.70613e-16
1.12235e-05
-1.06814e-15
1.12235e-05
-1.47257e-15
1.12235e-05
-2.02586e-15
1.12235e-05
-2.78581e-15
1.12235e-05
-3.83487e-15
1.12235e-05
-5.29154e-15
1.12235e-05
-7.32692e-15
1.12235e-05
-1.01563e-14
1.12235e-05
-1.41154e-14
1.12235e-05
-1.9649e-14
1.12235e-05
-2.75101e-14
1.12235e-05
-3.87157e-14
1.12235e-05
-5.46357e-14
1.12235e-05
-7.76505e-14
1.12235e-05
-1.10692e-13
1.12235e-05
-1.58094e-13
1.12235e-05
-2.267e-13
1.12235e-05
-3.25187e-13
1.12235e-05
-4.66161e-13
1.12235e-05
-6.70574e-13
1.12235e-05
-9.63005e-13
1.12235e-05
-1.37742e-12
1.12235e-05
-1.97491e-12
1.12235e-05
-2.83882e-12
1.12235e-05
-4.05691e-12
1.12235e-05
-5.77679e-12
1.12235e-05
-8.25947e-12
1.12235e-05
-1.18003e-11
1.12235e-05
-1.67661e-11
1.12234e-05
-2.38597e-11
1.12234e-05
-3.40861e-11
1.12234e-05
-4.89422e-11
1.12234e-05
-7.31851e-11
1.12233e-05
-1.16344e-10
1.12232e-05
-1.97569e-10
1.12229e-05
-3.54679e-10
1.12222e-05
-6.92423e-10
-1.23597e-09
1.12209e-05
1.12235e-05
-6.57774e-21
1.12235e-05
-4.18156e-19
1.12235e-05
-9.0528e-19
1.12235e-05
-1.15451e-18
1.12235e-05
-1.64062e-18
1.12235e-05
-2.35304e-18
1.12235e-05
-3.56883e-18
1.12235e-05
-5.29404e-18
1.12235e-05
-7.94044e-18
1.12235e-05
-1.19931e-17
1.12235e-05
-1.83277e-17
1.12235e-05
-2.7854e-17
1.12235e-05
-4.12027e-17
1.12235e-05
-5.93335e-17
1.12235e-05
-8.37329e-17
1.12235e-05
-1.16413e-16
1.12235e-05
-1.61229e-16
1.12235e-05
-2.23144e-16
1.12235e-05
-3.10392e-16
1.12235e-05
-4.35241e-16
1.12235e-05
-6.11881e-16
1.12235e-05
-8.56103e-16
1.12235e-05
-1.19268e-15
1.12235e-05
-1.65749e-15
1.12235e-05
-2.29991e-15
1.12235e-05
-3.18931e-15
1.12235e-05
-4.42755e-15
1.12235e-05
-6.1791e-15
1.12235e-05
-8.66889e-15
1.12235e-05
-1.22037e-14
1.12235e-05
-1.71765e-14
1.12235e-05
-2.42629e-14
1.12235e-05
-3.43924e-14
1.12235e-05
-4.89938e-14
1.12235e-05
-7.02721e-14
1.12235e-05
-1.01163e-13
1.12235e-05
-1.46393e-13
1.12235e-05
-2.11993e-13
1.12235e-05
-3.06734e-13
1.12235e-05
-4.4503e-13
1.12235e-05
-6.45654e-13
1.12235e-05
-9.31917e-13
1.12235e-05
-1.34563e-12
1.12235e-05
-1.94885e-12
1.12235e-05
-2.81099e-12
1.12235e-05
-4.03022e-12
1.12235e-05
-5.77872e-12
1.12235e-05
-8.2944e-12
1.12235e-05
-1.18274e-11
1.12234e-05
-1.67806e-11
1.12234e-05
-2.3862e-11
1.12234e-05
-3.3918e-11
1.12234e-05
-4.79835e-11
1.12234e-05
-6.87952e-11
1.12234e-05
-1.04102e-10
1.12233e-05
-1.68672e-10
1.1223e-05
-2.93721e-10
1.12225e-05
-5.3822e-10
1.12214e-05
-1.06265e-09
-1.93241e-09
1.12192e-05
1.12235e-05
-1.36041e-19
1.12235e-05
-3.827e-19
1.12235e-05
-6.16547e-19
1.12235e-05
-8.63444e-19
1.12235e-05
-1.16167e-18
1.12235e-05
-1.68837e-18
1.12235e-05
-2.80851e-18
1.12235e-05
-4.62448e-18
1.12235e-05
-7.42819e-18
1.12235e-05
-1.18251e-17
1.12235e-05
-1.8407e-17
1.12235e-05
-2.80101e-17
1.12235e-05
-4.16915e-17
1.12235e-05
-6.02258e-17
1.12235e-05
-8.52986e-17
1.12235e-05
-1.19481e-16
1.12235e-05
-1.67163e-16
1.12235e-05
-2.34956e-16
1.12235e-05
-3.33362e-16
1.12235e-05
-4.75701e-16
1.12235e-05
-6.76805e-16
1.12235e-05
-9.5314e-16
1.12235e-05
-1.33384e-15
1.12235e-05
-1.86373e-15
1.12235e-05
-2.60761e-15
1.12235e-05
-3.65654e-15
1.12235e-05
-5.1424e-15
1.12235e-05
-7.26969e-15
1.12235e-05
-1.03327e-14
1.12235e-05
-1.47472e-14
1.12235e-05
-2.10858e-14
1.12235e-05
-3.02577e-14
1.12235e-05
-4.35621e-14
1.12235e-05
-6.29892e-14
1.12235e-05
-9.15643e-14
1.12235e-05
-1.3348e-13
1.12235e-05
-1.95138e-13
1.12235e-05
-2.85623e-13
1.12235e-05
-4.1826e-13
1.12235e-05
-6.13118e-13
1.12235e-05
-8.97145e-13
1.12235e-05
-1.30682e-12
1.12235e-05
-1.90158e-12
1.12235e-05
-2.7684e-12
1.12235e-05
-4.02115e-12
1.12235e-05
-5.82275e-12
1.12235e-05
-8.42331e-12
1.12235e-05
-1.21792e-11
1.12235e-05
-1.75245e-11
1.12234e-05
-2.50947e-11
1.12234e-05
-3.5929e-11
1.12234e-05
-5.13789e-11
1.12234e-05
-7.32883e-11
1.12234e-05
-1.06235e-10
1.12233e-05
-1.61246e-10
1.12232e-05
-2.61696e-10
1.12228e-05
-4.54636e-10
1.1222e-05
-8.29754e-10
1.12203e-05
-1.62676e-09
-2.97469e-09
1.12167e-05
1.12235e-05
-1.14508e-19
1.12235e-05
-2.90598e-19
1.12235e-05
-4.14027e-19
1.12235e-05
-5.59359e-19
1.12235e-05
-8.36749e-19
1.12235e-05
-1.21327e-18
1.12235e-05
-2.04962e-18
1.12235e-05
-3.88808e-18
1.12235e-05
-6.72961e-18
1.12235e-05
-1.11068e-17
1.12235e-05
-1.77004e-17
1.12235e-05
-2.69871e-17
1.12235e-05
-4.01618e-17
1.12235e-05
-5.80141e-17
1.12235e-05
-8.24817e-17
1.12235e-05
-1.16601e-16
1.12235e-05
-1.65114e-16
1.12235e-05
-2.35844e-16
1.12235e-05
-3.40166e-16
1.12235e-05
-4.91858e-16
1.12235e-05
-7.05582e-16
1.12235e-05
-9.97104e-16
1.12235e-05
-1.39692e-15
1.12235e-05
-1.96094e-15
1.12235e-05
-2.76817e-15
1.12235e-05
-3.92533e-15
1.12235e-05
-5.58926e-15
1.12235e-05
-7.99523e-15
1.12235e-05
-1.14798e-14
1.12235e-05
-1.65513e-14
1.12235e-05
-2.39786e-14
1.12235e-05
-3.48399e-14
1.12235e-05
-5.07975e-14
1.12235e-05
-7.43836e-14
1.12235e-05
-1.09576e-13
1.12235e-05
-1.6198e-13
1.12235e-05
-2.3992e-13
1.12235e-05
-3.55918e-13
1.12235e-05
-5.28045e-13
1.12235e-05
-7.81751e-13
1.12235e-05
-1.15338e-12
1.12235e-05
-1.6952e-12
1.12235e-05
-2.4864e-12
1.12235e-05
-3.64695e-12
1.12235e-05
-5.35834e-12
1.12235e-05
-7.8561e-12
1.12235e-05
-1.14836e-11
1.12235e-05
-1.67353e-11
1.12234e-05
-2.43007e-11
1.12234e-05
-3.51774e-11
1.12234e-05
-5.08071e-11
1.12234e-05
-7.32254e-11
1.12234e-05
-1.05719e-10
1.12234e-05
-1.56063e-10
1.12233e-05
-2.41109e-10
1.1223e-05
-3.9608e-10
1.12224e-05
-6.8909e-10
1.12211e-05
-1.24922e-09
1.12184e-05
-2.42397e-09
-4.44712e-09
1.12129e-05
1.12235e-05
-3.76797e-20
1.12235e-05
-1.96459e-19
1.12235e-05
-2.93973e-19
1.12235e-05
-4.21981e-19
1.12235e-05
-6.0588e-19
1.12235e-05
-7.79125e-19
1.12235e-05
-1.34398e-18
1.12235e-05
-2.74864e-18
1.12235e-05
-5.47054e-18
1.12235e-05
-9.59575e-18
1.12235e-05
-1.5763e-17
1.12235e-05
-2.4592e-17
1.12235e-05
-3.69815e-17
1.12235e-05
-5.39789e-17
1.12235e-05
-7.7326e-17
1.12235e-05
-1.10264e-16
1.12235e-05
-1.57658e-16
1.12235e-05
-2.27741e-16
1.12235e-05
-3.3137e-16
1.12235e-05
-4.81864e-16
1.12235e-05
-6.93979e-16
1.12235e-05
-9.86959e-16
1.12235e-05
-1.39504e-15
1.12235e-05
-1.97725e-15
1.12235e-05
-2.82064e-15
1.12235e-05
-4.04635e-15
1.12235e-05
-5.8324e-15
1.12235e-05
-8.4438e-15
1.12235e-05
-1.22711e-14
1.12235e-05
-1.7904e-14
1.12235e-05
-2.62375e-14
1.12235e-05
-3.85618e-14
1.12235e-05
-5.69059e-14
1.12235e-05
-8.4368e-14
1.12235e-05
-1.25652e-13
1.12235e-05
-1.87731e-13
1.12235e-05
-2.81015e-13
1.12235e-05
-4.21244e-13
1.12235e-05
-6.313e-13
1.12235e-05
-9.43169e-13
1.12235e-05
-1.40308e-12
1.12235e-05
-2.08052e-12
1.12235e-05
-3.08119e-12
1.12235e-05
-4.56744e-12
1.12235e-05
-6.78342e-12
1.12235e-05
-1.00642e-11
1.12234e-05
-1.48917e-11
1.12234e-05
-2.19438e-11
1.12234e-05
-3.22076e-11
1.12234e-05
-4.71739e-11
1.12234e-05
-6.89174e-11
1.12234e-05
-1.00497e-10
1.12234e-05
-1.47404e-10
1.12233e-05
-2.22299e-10
1.12231e-05
-3.50888e-10
1.12227e-05
-5.81547e-10
1.12218e-05
-1.01216e-09
1.12198e-05
-1.82278e-09
1.12155e-05
-3.50573e-09
-6.4595e-09
1.1207e-05
1.12235e-05
-8.26784e-20
1.12235e-05
-3.53544e-19
1.12235e-05
-5.30825e-19
1.12235e-05
-5.42935e-19
1.12235e-05
-3.55648e-19
1.12235e-05
-2.9621e-19
1.12235e-05
-7.83228e-19
1.12235e-05
-1.71678e-18
1.12235e-05
-3.63255e-18
1.12235e-05
-7.22546e-18
1.12235e-05
-1.2709e-17
1.12235e-05
-2.06337e-17
1.12235e-05
-3.16971e-17
1.12235e-05
-4.6621e-17
1.12235e-05
-6.6973e-17
1.12235e-05
-9.57736e-17
1.12235e-05
-1.37695e-16
1.12235e-05
-2.0043e-16
1.12235e-05
-2.94646e-16
1.12235e-05
-4.33687e-16
1.12235e-05
-6.33802e-16
1.12235e-05
-9.17593e-16
1.12235e-05
-1.32025e-15
1.12235e-05
-1.8999e-15
1.12235e-05
-2.74419e-15
1.12235e-05
-3.98417e-15
1.12235e-05
-5.81606e-15
1.12235e-05
-8.53428e-15
1.12235e-05
-1.25756e-14
1.12235e-05
-1.85912e-14
1.12235e-05
-2.75747e-14
1.12235e-05
-4.10088e-14
1.12235e-05
-6.11766e-14
1.12235e-05
-9.16419e-14
1.12235e-05
-1.37852e-13
1.12235e-05
-2.08016e-13
1.12235e-05
-3.1439e-13
1.12235e-05
-4.75167e-13
1.12235e-05
-7.16614e-13
1.12235e-05
-1.07771e-12
1.12235e-05
-1.61537e-12
1.12235e-05
-2.41182e-12
1.12235e-05
-3.59194e-12
1.12235e-05
-5.35926e-12