/*--------------------------------*- C++ -*----------------------------------*\
  =========                 |
  \\      /  F ield         | OpenFOAM: The Open Source CFD Toolbox
   \\    /   O peration     | Website:  https://openfoam.org
    \\  /    A nd           | Version:  9
     \\/     M anipulation  |
\*---------------------------------------------------------------------------*/
FoamFile
{
    format      ascii;
    class       volVectorField;
    location    "0.003";
    object      U;
}
// * * * * * * * * * * * * * * * * * * * * * * * * * * * * * * * * * * * * * //

dimensions      [0 1 -1 0 0 0 0];

internalField   nonuniform List<vector> 
36400
(
(165.65 -5.65572e-12 0)
(165.65 -1.36786e-11 0)
(165.65 -1.98124e-11 0)
(165.65 -2.79256e-11 0)
(165.65 -3.67367e-11 0)
(165.65 -4.98539e-11 0)
(165.65 -6.83658e-11 0)
(165.65 -9.11774e-11 0)
(165.65 -1.1617e-10 0)
(165.65 -1.50264e-10 0)
(165.65 -1.96032e-10 0)
(165.65 -2.56102e-10 0)
(165.65 -3.36814e-10 0)
(165.65 -4.49379e-10 0)
(165.65 -6.02249e-10 0)
(165.65 -8.08126e-10 0)
(165.65 -1.09682e-09 0)
(165.65 -1.51138e-09 0)
(165.65 -2.0836e-09 0)
(165.65 -2.84217e-09 0)
(165.65 -3.92753e-09 0)
(165.65 -5.60918e-09 0)
(165.65 -8.05271e-09 0)
(165.65 -1.13485e-08 0)
(165.65 -1.63761e-08 0)
(165.65 -2.41433e-08 0)
(165.65 -3.49388e-08 0)
(165.65 -4.90446e-08 0)
(165.65 -6.76032e-08 0)
(165.65 -9.51416e-08 0)
(165.65 -1.36022e-07 0)
(165.65 -1.91283e-07 0)
(165.65 -2.68131e-07 0)
(165.65 -3.82002e-07 0)
(165.65 -5.44739e-07 0)
(165.65 -7.81736e-07 0)
(165.65 -1.08587e-06 0)
(165.65 -1.56899e-06 0)
(165.65 -2.24134e-06 0)
(165.65 -3.18746e-06 0)
(165.65 -4.5967e-06 0)
(165.65 -6.57221e-06 0)
(165.65 -9.23748e-06 0)
(165.65 -1.25119e-05 0)
(165.65 -1.64274e-05 0)
(165.65 -2.03577e-05 0)
(165.65 -2.5503e-05 0)
(165.65 -3.43422e-05 0)
(165.65 -4.78945e-05 0)
(165.65 -6.90964e-05 0)
(165.65 -9.5323e-05 0)
(165.65 -0.000135565 0)
(165.65 -0.000178647 0)
(165.65 -0.00023708 0)
(165.65 -0.000297129 0)
(165.65 -0.000405806 0)
(165.65 -0.000475443 0)
(165.649 -0.00052761 0)
(165.649 -0.00053289 0)
(165.649 -0.000301854 0)
(165.65 -7.8764e-12 0)
(165.65 -1.99899e-11 0)
(165.65 -2.67123e-11 0)
(165.65 -3.45465e-11 0)
(165.65 -4.45036e-11 0)
(165.65 -5.92991e-11 0)
(165.65 -8.04435e-11 0)
(165.65 -1.04474e-10 0)
(165.65 -1.31969e-10 0)
(165.65 -1.70079e-10 0)
(165.65 -2.18709e-10 0)
(165.65 -2.82612e-10 0)
(165.65 -3.67237e-10 0)
(165.65 -4.80353e-10 0)
(165.65 -6.27977e-10 0)
(165.65 -8.09517e-10 0)
(165.65 -1.03056e-09 0)
(165.65 -1.29898e-09 0)
(165.65 -1.62351e-09 0)
(165.65 -2.04381e-09 0)
(165.65 -2.57999e-09 0)
(165.65 -3.18822e-09 0)
(165.65 -3.86345e-09 0)
(165.65 -4.7091e-09 0)
(165.65 -5.88281e-09 0)
(165.65 -7.47872e-09 0)
(165.65 -9.45591e-09 0)
(165.65 -1.23052e-08 0)
(165.65 -1.6816e-08 0)
(165.65 -2.32708e-08 0)
(165.65 -3.06523e-08 0)
(165.65 -3.6782e-08 0)
(165.65 -4.15575e-08 0)
(165.65 -4.46123e-08 0)
(165.65 -4.59504e-08 0)
(165.65 -4.82797e-08 0)
(165.65 -5.38679e-08 0)
(165.65 -5.75705e-08 0)
(165.65 -5.53286e-08 0)
(165.65 -7.32423e-08 0)
(165.65 -1.28044e-07 0)
(165.65 -1.8185e-07 0)
(165.65 -2.38649e-07 0)
(165.65 -3.06646e-07 0)
(165.65 -3.74377e-07 0)
(165.65 -5.14208e-07 0)
(165.65 -7.97246e-07 0)
(165.65 -1.16406e-06 0)
(165.65 -1.96638e-06 0)
(165.65 -3.60536e-06 0)
(165.65 -6.38794e-06 0)
(165.65 -1.01102e-05 0)
(165.65 -1.56185e-05 0)
(165.65 -2.44514e-05 0)
(165.65 -3.65879e-05 0)
(165.65 -5.63914e-05 0)
(165.649 -7.77227e-05 0)
(165.649 -7.78303e-05 0)
(165.649 -6.7318e-05 0)
(165.649 -6.04174e-05 0)
(165.65 -5.54068e-12 0)
(165.65 -1.74505e-11 0)
(165.65 -2.45024e-11 0)
(165.65 -3.08873e-11 0)
(165.65 -4.119e-11 0)
(165.65 -5.53049e-11 0)
(165.65 -7.12315e-11 0)
(165.65 -9.05834e-11 0)
(165.65 -1.16402e-10 0)
(165.65 -1.48799e-10 0)
(165.65 -1.89172e-10 0)
(165.65 -2.39812e-10 0)
(165.65 -3.01383e-10 0)
(165.65 -3.72812e-10 0)
(165.65 -4.5683e-10 0)
(165.65 -5.50621e-10 0)
(165.65 -6.39472e-10 0)
(165.65 -7.17395e-10 0)
(165.65 -8.30835e-10 0)
(165.65 -1.05859e-09 0)
(165.65 -1.25452e-09 0)
(165.65 -1.14082e-09 0)
(165.65 -8.19183e-10 0)
(165.65 -5.48915e-10 0)
(165.65 2.98377e-10 0)
(165.65 2.09225e-09 0)
(165.65 4.03472e-09 0)
(165.65 5.04278e-09 0)
(165.65 5.83585e-09 0)
(165.65 1.09105e-08 0)
(165.65 2.51949e-08 0)
(165.65 4.95531e-08 0)
(165.65 9.10053e-08 0)
(165.65 1.61828e-07 0)
(165.65 2.71917e-07 0)
(165.65 4.37454e-07 0)
(165.65 6.49392e-07 0)
(165.65 1.03557e-06 0)
(165.65 1.58198e-06 0)
(165.65 2.38163e-06 0)
(165.65 3.61185e-06 0)
(165.65 5.3788e-06 0)
(165.65 7.73222e-06 0)
(165.65 1.06326e-05 0)
(165.65 1.4168e-05 0)
(165.65 1.7781e-05 0)
(165.65 2.26618e-05 0)
(165.65 3.12617e-05 0)
(165.65 4.42517e-05 0)
(165.65 6.37961e-05 0)
(165.65 8.69404e-05 0)
(165.65 0.000122291 0)
(165.65 0.000157883 0)
(165.65 0.000205346 0)
(165.65 0.0002532 0)
(165.65 0.000343166 0)
(165.65 0.000389382 0)
(165.649 0.000441751 0)
(165.649 0.000463513 0)
(165.649 0.000266299 0)
(165.65 -4.61517e-12 0)
(165.65 -1.46837e-11 0)
(165.65 -2.0605e-11 0)
(165.65 -2.51433e-11 0)
(165.65 -3.37849e-11 0)
(165.65 -4.71723e-11 0)
(165.65 -6.08408e-11 0)
(165.65 -8.00086e-11 0)
(165.65 -1.04795e-10 0)
(165.65 -1.36731e-10 0)
(165.65 -1.75064e-10 0)
(165.65 -2.17418e-10 0)
(165.65 -2.63785e-10 0)
(165.65 -3.12904e-10 0)
(165.65 -3.66049e-10 0)
(165.65 -4.26625e-10 0)
(165.65 -4.84874e-10 0)
(165.65 -5.37159e-10 0)
(165.65 -6.13967e-10 0)
(165.65 -7.43941e-10 0)
(165.65 -8.39088e-10 0)
(165.65 -8.04774e-10 0)
(165.65 -7.2158e-10 0)
(165.65 -6.19469e-10 0)
(165.65 -3.16031e-10 0)
(165.65 1.54443e-10 0)
(165.65 9.53683e-11 0)
(165.65 -8.20139e-10 0)
(165.65 -1.8452e-09 0)
(165.65 -1.03286e-09 0)
(165.65 3.0032e-09 0)
(165.65 1.00343e-08 0)
(165.65 2.20995e-08 0)
(165.65 4.41382e-08 0)
(165.65 8.02572e-08 0)
(165.65 1.37641e-07 0)
(165.65 2.1587e-07 0)
(165.65 3.3827e-07 0)
(165.65 4.9684e-07 0)
(165.65 7.44133e-07 0)
(165.65 1.10152e-06 0)
(165.65 1.5417e-06 0)
(165.65 2.065e-06 0)
(165.65 2.66197e-06 0)
(165.65 3.32815e-06 0)
(165.65 4.04858e-06 0)
(165.65 4.94893e-06 0)
(165.65 6.08396e-06 0)
(165.65 7.83538e-06 0)
(165.65 1.04621e-05 0)
(165.65 1.37662e-05 0)
(165.65 1.80058e-05 0)
(165.65 2.28199e-05 0)
(165.65 2.94511e-05 0)
(165.65 3.89332e-05 0)
(165.65 5.85692e-05 0)
(165.65 7.00194e-05 0)
(165.649 7.64546e-05 0)
(165.649 7.62928e-05 0)
(165.648 4.98983e-05 0)
(165.65 -3.55926e-12 0)
(165.65 -1.20097e-11 0)
(165.65 -1.7943e-11 0)
(165.65 -2.29461e-11 0)
(165.65 -3.121e-11 0)
(165.65 -4.43071e-11 0)
(165.65 -5.97042e-11 0)
(165.65 -8.17219e-11 0)
(165.65 -1.10338e-10 0)
(165.65 -1.47287e-10 0)
(165.65 -1.8772e-10 0)
(165.65 -2.29702e-10 0)
(165.65 -2.70811e-10 0)
(165.65 -3.05419e-10 0)
(165.65 -3.30452e-10 0)
(165.65 -3.46222e-10 0)
(165.65 -3.41392e-10 0)
(165.65 -2.89573e-10 0)
(165.65 -1.69763e-10 0)
(165.65 1.76943e-11 0)
(165.65 2.95467e-10 0)
(165.65 7.94567e-10 0)
(165.65 1.67152e-09 0)
(165.65 2.99858e-09 0)
(165.65 4.90405e-09 0)
(165.65 7.82082e-09 0)
(165.65 1.20357e-08 0)
(165.65 1.75486e-08 0)
(165.65 2.44721e-08 0)
(165.65 3.47632e-08 0)
(165.65 5.03393e-08 0)
(165.65 7.24289e-08 0)
(165.65 1.02371e-07 0)
(165.65 1.47387e-07 0)
(165.65 2.12777e-07 0)
(165.65 3.10955e-07 0)
(165.65 4.43052e-07 0)
(165.65 6.1867e-07 0)
(165.65 8.59956e-07 0)
(165.65 1.17103e-06 0)
(165.65 1.57331e-06 0)
(165.65 2.04837e-06 0)
(165.65 2.6585e-06 0)
(165.65 3.36167e-06 0)
(165.65 4.07999e-06 0)
(165.65 4.6826e-06 0)
(165.65 5.14854e-06 0)
(165.65 5.59107e-06 0)
(165.65 6.37831e-06 0)
(165.65 7.95924e-06 0)
(165.65 1.054e-05 0)
(165.65 1.42956e-05 0)
(165.65 1.92928e-05 0)
(165.65 2.53774e-05 0)
(165.65 3.0469e-05 0)
(165.65 4.07485e-05 0)
(165.65 4.69698e-05 0)
(165.649 3.44983e-05 0)
(165.649 -1.27847e-05 0)
(165.648 -0.000108354 0)
(165.65 -2.05305e-12 0)
(165.65 -8.77431e-12 0)
(165.65 -1.61964e-11 0)
(165.65 -2.27416e-11 0)
(165.65 -3.21709e-11 0)
(165.65 -4.74762e-11 0)
(165.65 -6.70352e-11 0)
(165.65 -9.47015e-11 0)
(165.65 -1.28792e-10 0)
(165.65 -1.70469e-10 0)
(165.65 -2.16533e-10 0)
(165.65 -2.64501e-10 0)
(165.65 -3.09392e-10 0)
(165.65 -3.43039e-10 0)
(165.65 -3.62536e-10 0)
(165.65 -3.75473e-10 0)
(165.65 -3.90103e-10 0)
(165.65 -4.03303e-10 0)
(165.65 -4.1384e-10 0)
(165.65 -4.33101e-10 0)
(165.65 -4.71694e-10 0)
(165.65 -5.10091e-10 0)
(165.65 -5.74596e-10 0)
(165.65 -7.5325e-10 0)
(165.65 -1.07016e-09 0)
(165.65 -1.31225e-09 0)
(165.65 -1.3449e-09 0)
(165.65 -1.49209e-09 0)
(165.65 -1.7423e-09 0)
(165.65 -1.28697e-09 0)
(165.65 2.06172e-10 0)
(165.65 1.91653e-09 0)
(165.65 3.26066e-09 0)
(165.65 5.07454e-09 0)
(165.65 8.48958e-09 0)
(165.65 1.80811e-08 0)
(165.65 3.77344e-08 0)
(165.65 6.67907e-08 0)
(165.65 1.04423e-07 0)
(165.65 1.47273e-07 0)
(165.65 2.03543e-07 0)
(165.65 2.70947e-07 0)
(165.65 3.61064e-07 0)
(165.65 4.80809e-07 0)
(165.65 5.46793e-07 0)
(165.65 4.32551e-07 0)
(165.65 6.56842e-08 0)
(165.65 -6.46534e-07 0)
(165.65 -1.73595e-06 0)
(165.65 -3.22516e-06 0)
(165.65 -4.88129e-06 0)
(165.65 -7.63845e-06 0)
(165.65 -1.18883e-05 0)
(165.65 -1.80437e-05 0)
(165.65 -2.90651e-05 0)
(165.65 -4.69344e-05 0)
(165.65 -6.83929e-05 0)
(165.649 -0.000105165 0)
(165.649 -0.000180312 0)
(165.648 -0.000275122 0)
(165.65 -1.41288e-12 0)
(165.65 -6.25848e-12 0)
(165.65 -1.33343e-11 0)
(165.65 -2.10102e-11 0)
(165.65 -3.52461e-11 0)
(165.65 -5.31897e-11 0)
(165.65 -7.78594e-11 0)
(165.65 -1.12216e-10 0)
(165.65 -1.52069e-10 0)
(165.65 -1.97278e-10 0)
(165.65 -2.48259e-10 0)
(165.65 -3.0154e-10 0)
(165.65 -3.51756e-10 0)
(165.65 -3.93845e-10 0)
(165.65 -4.28523e-10 0)
(165.65 -4.64764e-10 0)
(165.65 -5.15285e-10 0)
(165.65 -5.86646e-10 0)
(165.65 -6.78116e-10 0)
(165.65 -7.92098e-10 0)
(165.65 -9.46794e-10 0)
(165.65 -1.18171e-09 0)
(165.65 -1.57695e-09 0)
(165.65 -2.22409e-09 0)
(165.65 -3.17529e-09 0)
(165.65 -4.30801e-09 0)
(165.65 -5.51523e-09 0)
(165.65 -7.02729e-09 0)
(165.65 -9.15573e-09 0)
(165.65 -1.20167e-08 0)
(165.65 -1.60562e-08 0)
(165.65 -2.29033e-08 0)
(165.65 -3.41465e-08 0)
(165.65 -5.14527e-08 0)
(165.65 -7.5915e-08 0)
(165.65 -1.0689e-07 0)
(165.65 -1.46051e-07 0)
(165.65 -2.02378e-07 0)
(165.65 -2.85281e-07 0)
(165.65 -4.1003e-07 0)
(165.65 -5.78706e-07 0)
(165.65 -7.78325e-07 0)
(165.65 -1.02219e-06 0)
(165.65 -1.33436e-06 0)
(165.65 -1.81606e-06 0)
(165.65 -2.59242e-06 0)
(165.65 -3.80042e-06 0)
(165.65 -5.64871e-06 0)
(165.65 -8.416e-06 0)
(165.65 -1.25195e-05 0)
(165.65 -1.7844e-05 0)
(165.65 -2.48842e-05 0)
(165.65 -3.45882e-05 0)
(165.65 -4.69422e-05 0)
(165.65 -6.48246e-05 0)
(165.65 -9.7219e-05 0)
(165.65 -0.000160913 0)
(165.649 -0.000259377 0)
(165.649 -0.000387869 0)
(165.648 -0.000486198 0)
(165.65 -6.19678e-13 0)
(165.65 -4.81671e-12 0)
(165.65 -1.22224e-11 0)
(165.65 -2.14058e-11 0)
(165.65 -3.83657e-11 0)
(165.65 -5.98024e-11 0)
(165.65 -8.93527e-11 0)
(165.65 -1.27614e-10 0)
(165.65 -1.70627e-10 0)
(165.65 -2.17952e-10 0)
(165.65 -2.70012e-10 0)
(165.65 -3.24478e-10 0)
(165.65 -3.81133e-10 0)
(165.65 -4.38801e-10 0)
(165.65 -5.00915e-10 0)
(165.65 -5.75986e-10 0)
(165.65 -6.75357e-10 0)
(165.65 -8.20423e-10 0)
(165.65 -1.03401e-09 0)
(165.65 -1.35348e-09 0)
(165.65 -1.82919e-09 0)
(165.65 -2.52309e-09 0)
(165.65 -3.53269e-09 0)
(165.65 -5.02752e-09 0)
(165.65 -7.20371e-09 0)
(165.65 -1.01551e-08 0)
(165.65 -1.40716e-08 0)
(165.65 -1.94437e-08 0)
(165.65 -2.67526e-08 0)
(165.65 -3.691e-08 0)
(165.65 -5.1377e-08 0)
(165.65 -7.17554e-08 0)
(165.65 -1.00178e-07 0)
(165.65 -1.4004e-07 0)
(165.65 -1.96094e-07 0)
(165.65 -2.7181e-07 0)
(165.65 -3.73093e-07 0)
(165.65 -5.16392e-07 0)
(165.65 -7.19027e-07 0)
(165.65 -9.92243e-07 0)
(165.65 -1.34668e-06 0)
(165.65 -1.78483e-06 0)
(165.65 -2.33783e-06 0)
(165.65 -3.06126e-06 0)
(165.65 -4.02543e-06 0)
(165.65 -5.3713e-06 0)
(165.65 -7.24248e-06 0)
(165.65 -9.88723e-06 0)
(165.65 -1.37038e-05 0)
(165.65 -1.8803e-05 0)
(165.65 -2.55504e-05 0)
(165.65 -3.42895e-05 0)
(165.65 -4.50599e-05 0)
(165.65 -5.6389e-05 0)
(165.65 -6.84875e-05 0)
(165.65 -8.80832e-05 0)
(165.649 -0.000136819 0)
(165.649 -0.000227362 0)
(165.649 -0.000383625 0)
(165.648 -0.000606323 0)
(165.65 -1.13076e-12 0)
(165.65 -7.33749e-12 0)
(165.65 -1.57421e-11 0)
(165.65 -2.67493e-11 0)
(165.65 -4.24976e-11 0)
(165.65 -6.7347e-11 0)
(165.65 -1.00667e-10 0)
(165.65 -1.39011e-10 0)
(165.65 -1.81773e-10 0)
(165.65 -2.28962e-10 0)
(165.65 -2.80197e-10 0)
(165.65 -3.36255e-10 0)
(165.65 -3.9982e-10 0)
(165.65 -4.76523e-10 0)
(165.65 -5.72893e-10 0)
(165.65 -6.95373e-10 0)
(165.65 -8.56926e-10 0)
(165.65 -1.0799e-09 0)
(165.65 -1.40052e-09 0)
(165.65 -1.87636e-09 0)
(165.65 -2.5777e-09 0)
(165.65 -3.56744e-09 0)
(165.65 -4.92378e-09 0)
(165.65 -6.80788e-09 0)
(165.65 -9.44725e-09 0)
(165.65 -1.31038e-08 0)
(165.65 -1.81937e-08 0)
(165.65 -2.52364e-08 0)
(165.65 -3.48945e-08 0)
(165.65 -4.85765e-08 0)
(165.65 -6.8144e-08 0)
(165.65 -9.51604e-08 0)
(165.65 -1.32286e-07 0)
(165.65 -1.83956e-07 0)
(165.65 -2.56748e-07 0)
(165.65 -3.57541e-07 0)
(165.65 -4.95318e-07 0)
(165.65 -6.87053e-07 0)
(165.65 -9.52937e-07 0)
(165.65 -1.30305e-06 0)
(165.65 -1.75964e-06 0)
(165.65 -2.36991e-06 0)
(165.65 -3.18037e-06 0)
(165.65 -4.23996e-06 0)
(165.65 -5.62739e-06 0)
(165.65 -7.5579e-06 0)
(165.65 -1.02305e-05 0)
(165.65 -1.39919e-05 0)
(165.65 -1.92821e-05 0)
(165.65 -2.59621e-05 0)
(165.65 -3.493e-05 0)
(165.65 -4.67943e-05 0)
(165.65 -6.06762e-05 0)
(165.65 -7.73593e-05 0)
(165.65 -9.8869e-05 0)
(165.65 -0.00013187 0)
(165.649 -0.000190468 0)
(165.649 -0.000289998 0)
(165.648 -0.000515835 0)
(165.647 -0.000857633 0)
(165.65 -2.11111e-12 0)
(165.65 -9.65174e-12 0)
(165.65 -1.89981e-11 0)
(165.65 -3.1317e-11 0)
(165.65 -4.8156e-11 0)
(165.65 -7.43333e-11 0)
(165.65 -1.07165e-10 0)
(165.65 -1.45324e-10 0)
(165.65 -1.8704e-10 0)
(165.65 -2.31632e-10 0)
(165.65 -2.81882e-10 0)
(165.65 -3.42563e-10 0)
(165.65 -4.1937e-10 0)
(165.65 -5.24209e-10 0)
(165.65 -6.68661e-10 0)
(165.65 -8.63234e-10 0)
(165.65 -1.12748e-09 0)
(165.65 -1.48475e-09 0)
(165.65 -1.97709e-09 0)
(165.65 -2.67618e-09 0)
(165.65 -3.68686e-09 0)
(165.65 -5.12229e-09 0)
(165.65 -7.09536e-09 0)
(165.65 -9.74917e-09 0)
(165.65 -1.33038e-08 0)
(165.65 -1.81646e-08 0)
(165.65 -2.48713e-08 0)
(165.65 -3.39917e-08 0)
(165.65 -4.65498e-08 0)
(165.65 -6.41263e-08 0)
(165.65 -8.8374e-08 0)
(165.65 -1.212e-07 0)
(165.65 -1.65825e-07 0)
(165.65 -2.2753e-07 0)
(165.65 -3.13566e-07 0)
(165.65 -4.34493e-07 0)
(165.65 -6.04265e-07 0)
(165.65 -8.38403e-07 0)
(165.65 -1.16294e-06 0)
(165.65 -1.61038e-06 0)
(165.65 -2.22286e-06 0)
(165.65 -3.06996e-06 0)
(165.65 -4.23788e-06 0)
(165.65 -5.79084e-06 0)
(165.65 -7.86726e-06 0)
(165.65 -1.09079e-05 0)
(165.65 -1.53284e-05 0)
(165.65 -2.15455e-05 0)
(165.65 -3.03067e-05 0)
(165.65 -4.23523e-05 0)
(165.65 -5.90885e-05 0)
(165.65 -8.12906e-05 0)
(165.65 -0.000109176 0)
(165.65 -0.000146924 0)
(165.65 -0.000205866 0)
(165.649 -0.000311624 0)
(165.649 -0.00049621 0)
(165.649 -0.000746128 0)
(165.648 -0.00117609 0)
(165.646 -0.00165573 0)
(165.65 -2.196e-12 0)
(165.65 -1.04598e-11 0)
(165.65 -2.07171e-11 0)
(165.65 -3.27778e-11 0)
(165.65 -5.09298e-11 0)
(165.65 -7.67372e-11 0)
(165.65 -1.08844e-10 0)
(165.65 -1.44314e-10 0)
(165.65 -1.82923e-10 0)
(165.65 -2.25389e-10 0)
(165.65 -2.75697e-10 0)
(165.65 -3.39409e-10 0)
(165.65 -4.26224e-10 0)
(165.65 -5.51263e-10 0)
(165.65 -7.3065e-10 0)
(165.65 -9.8153e-10 0)
(165.65 -1.32365e-09 0)
(165.65 -1.77858e-09 0)
(165.65 -2.38498e-09 0)
(165.65 -3.21725e-09 0)
(165.65 -4.40301e-09 0)
(165.65 -6.11727e-09 0)
(165.65 -8.53454e-09 0)
(165.65 -1.17769e-08 0)
(165.65 -1.60078e-08 0)
(165.65 -2.1581e-08 0)
(165.65 -2.90083e-08 0)
(165.65 -3.89844e-08 0)
(165.65 -5.2749e-08 0)
(165.65 -7.22089e-08 0)
(165.65 -9.96545e-08 0)
(165.65 -1.3816e-07 0)
(165.65 -1.92106e-07 0)
(165.65 -2.66998e-07 0)
(165.65 -3.70266e-07 0)
(165.65 -5.11936e-07 0)
(165.65 -7.05731e-07 0)
(165.65 -9.69241e-07 0)
(165.65 -1.33424e-06 0)
(165.65 -1.84746e-06 0)
(165.65 -2.57129e-06 0)
(165.65 -3.58595e-06 0)
(165.65 -4.99202e-06 0)
(165.65 -6.88463e-06 0)
(165.65 -9.4592e-06 0)
(165.65 -1.31521e-05 0)
(165.65 -1.85587e-05 0)
(165.65 -2.61418e-05 0)
(165.65 -3.65895e-05 0)
(165.65 -5.14196e-05 0)
(165.65 -7.19577e-05 0)
(165.65 -0.00010068 0)
(165.65 -0.000141508 0)
(165.65 -0.000199951 0)
(165.65 -0.000287315 0)
(165.649 -0.000426359 0)
(165.649 -0.000659243 0)
(165.648 -0.00102659 0)
(165.647 -0.00175866 0)
(165.644 -0.00271619 0)
(165.65 -2.85509e-12 0)
(165.65 -1.27886e-11 0)
(165.65 -2.2678e-11 0)
(165.65 -3.3804e-11 0)
(165.65 -5.20253e-11 0)
(165.65 -7.61249e-11 0)
(165.65 -1.06401e-10 0)
(165.65 -1.38157e-10 0)
(165.65 -1.74773e-10 0)
(165.65 -2.17745e-10 0)
(165.65 -2.72591e-10 0)
(165.65 -3.46751e-10 0)
(165.65 -4.48986e-10 0)
(165.65 -5.98183e-10 0)
(165.65 -8.15029e-10 0)
(165.65 -1.1238e-09 0)
(165.65 -1.54478e-09 0)
(165.65 -2.09646e-09 0)
(165.65 -2.81643e-09 0)
(165.65 -3.77687e-09 0)
(165.65 -5.11251e-09 0)
(165.65 -7.03911e-09 0)
(165.65 -9.78185e-09 0)
(165.65 -1.34618e-08 0)
(165.65 -1.81967e-08 0)
(165.65 -2.42702e-08 0)
(165.65 -3.2109e-08 0)
(165.65 -4.23408e-08 0)
(165.65 -5.61819e-08 0)
(165.65 -7.54141e-08 0)
(165.65 -1.02068e-07 0)
(165.65 -1.39433e-07 0)
(165.65 -1.92023e-07 0)
(165.65 -2.6517e-07 0)
(165.65 -3.65014e-07 0)
(165.65 -5.00016e-07 0)
(165.65 -6.82173e-07 0)
(165.65 -9.29703e-07 0)
(165.65 -1.26849e-06 0)
(165.65 -1.74298e-06 0)
(165.65 -2.42419e-06 0)
(165.65 -3.38818e-06 0)
(165.65 -4.71638e-06 0)
(165.65 -6.52571e-06 0)
(165.65 -9.00819e-06 0)
(165.65 -1.23949e-05 0)
(165.65 -1.71233e-05 0)
(165.65 -2.35116e-05 0)
(165.65 -3.19229e-05 0)
(165.65 -4.37504e-05 0)
(165.65 -6.0308e-05 0)
(165.65 -8.36382e-05 0)
(165.65 -0.000118786 0)
(165.65 -0.000171057 0)
(165.649 -0.000241838 0)
(165.649 -0.000330145 0)
(165.649 -0.000485259 0)
(165.648 -0.00086429 0)
(165.646 -0.00188877 0)
(165.641 -0.00358136 0)
(165.65 -3.35904e-12 0)
(165.65 -1.29862e-11 0)
(165.65 -2.19713e-11 0)
(165.65 -3.49131e-11 0)
(165.65 -5.39904e-11 0)
(165.65 -7.49104e-11 0)
(165.65 -9.92403e-11 0)
(165.65 -1.2908e-10 0)
(165.65 -1.67041e-10 0)
(165.65 -2.14927e-10 0)
(165.65 -2.80023e-10 0)
(165.65 -3.74175e-10 0)
(165.65 -5.08313e-10 0)
(165.65 -7.03361e-10 0)
(165.65 -9.8119e-10 0)
(165.65 -1.36949e-09 0)
(165.65 -1.89554e-09 0)
(165.65 -2.59007e-09 0)
(165.65 -3.5018e-09 0)
(165.65 -4.715e-09 0)
(165.65 -6.3837e-09 0)
(165.65 -8.76967e-09 0)
(165.65 -1.21503e-08 0)
(165.65 -1.67237e-08 0)
(165.65 -2.27075e-08 0)
(165.65 -3.0526e-08 0)
(165.65 -4.07455e-08 0)
(165.65 -5.41374e-08 0)
(165.65 -7.21602e-08 0)
(165.65 -9.69864e-08 0)
(165.65 -1.31409e-07 0)
(165.65 -1.8034e-07 0)
(165.65 -2.50007e-07 0)
(165.65 -3.48483e-07 0)
(165.65 -4.84341e-07 0)
(165.65 -6.70618e-07 0)
(165.65 -9.249e-07 0)
(165.65 -1.27792e-06 0)
(165.65 -1.76958e-06 0)
(165.65 -2.46096e-06 0)
(165.65 -3.44632e-06 0)
(165.65 -4.85031e-06 0)
(165.65 -6.84009e-06 0)
(165.65 -9.63099e-06 0)
(165.65 -1.3485e-05 0)
(165.65 -1.88658e-05 0)
(165.65 -2.64424e-05 0)
(165.65 -3.70559e-05 0)
(165.65 -5.18723e-05 0)
(165.65 -7.27106e-05 0)
(165.65 -0.000102659 0)
(165.65 -0.000144349 0)
(165.65 -0.000205093 0)
(165.65 -0.000292806 0)
(165.649 -0.00041509 0)
(165.649 -0.000596103 0)
(165.648 -0.000920045 0)
(165.647 -0.00159666 0)
(165.644 -0.00321241 0)
(165.636 -0.00582564 0)
(165.65 -3.17161e-12 0)
(165.65 -1.12154e-11 0)
(165.65 -2.08644e-11 0)
(165.65 -3.42895e-11 0)
(165.65 -5.1309e-11 0)
(165.65 -6.95962e-11 0)
(165.65 -9.05346e-11 0)
(165.65 -1.18512e-10 0)
(165.65 -1.58219e-10 0)
(165.65 -2.13441e-10 0)
(165.65 -2.91793e-10 0)
(165.65 -4.05973e-10 0)
(165.65 -5.71975e-10 0)
(165.65 -8.10493e-10 0)
(165.65 -1.14093e-09 0)
(165.65 -1.58905e-09 0)
(165.65 -2.18611e-09 0)
(165.65 -2.97562e-09 0)
(165.65 -4.01847e-09 0)
(165.65 -5.41767e-09 0)
(165.65 -7.34807e-09 0)
(165.65 -1.00775e-08 0)
(165.65 -1.38544e-08 0)
(165.65 -1.8924e-08 0)
(165.65 -2.56462e-08 0)
(165.65 -3.45733e-08 0)
(165.65 -4.64704e-08 0)
(165.65 -6.23702e-08 0)
(165.65 -8.38301e-08 0)
(165.65 -1.13082e-07 0)
(165.65 -1.53805e-07 0)
(165.65 -2.11015e-07 0)
(165.65 -2.91889e-07 0)
(165.65 -4.06145e-07 0)
(165.65 -5.65221e-07 0)
(165.65 -7.89323e-07 0)
(165.65 -1.10233e-06 0)
(165.65 -1.54282e-06 0)
(165.65 -2.17113e-06 0)
(165.65 -3.06394e-06 0)
(165.65 -4.33504e-06 0)
(165.65 -6.17677e-06 0)
(165.65 -8.80589e-06 0)
(165.65 -1.25285e-05 0)
(165.65 -1.78726e-05 0)
(165.65 -2.55279e-05 0)
(165.65 -3.62442e-05 0)
(165.65 -5.12656e-05 0)
(165.65 -7.28556e-05 0)
(165.65 -0.000103542 0)
(165.65 -0.000146249 0)
(165.65 -0.000206389 0)
(165.65 -0.000294035 0)
(165.649 -0.000420052 0)
(165.649 -0.000614018 0)
(165.648 -0.000965194 0)
(165.647 -0.00163062 0)
(165.645 -0.00290854 0)
(165.64 -0.0056891 0)
(165.629 -0.00997073 0)
(165.65 -2.64597e-12 0)
(165.65 -9.40643e-12 0)
(165.65 -1.87633e-11 0)
(165.65 -2.88182e-11 0)
(165.65 -4.15422e-11 0)
(165.65 -5.86276e-11 0)
(165.65 -7.99773e-11 0)
(165.65 -1.08134e-10 0)
(165.65 -1.48675e-10 0)
(165.65 -2.10568e-10 0)
(165.65 -3.02668e-10 0)
(165.65 -4.39234e-10 0)
(165.65 -6.37319e-10 0)
(165.65 -9.17181e-10 0)
(165.65 -1.30005e-09 0)
(165.65 -1.81699e-09 0)
(165.65 -2.50672e-09 0)
(165.65 -3.42956e-09 0)
(165.65 -4.67404e-09 0)
(165.65 -6.38685e-09 0)
(165.65 -8.78646e-09 0)
(165.65 -1.21662e-08 0)
(165.65 -1.68069e-08 0)
(165.65 -2.30742e-08 0)
(165.65 -3.15571e-08 0)
(165.65 -4.30885e-08 0)
(165.65 -5.88679e-08 0)
(165.65 -8.05756e-08 0)
(165.65 -1.10494e-07 0)
(165.65 -1.51457e-07 0)
(165.65 -2.08224e-07 0)
(165.65 -2.86704e-07 0)
(165.65 -3.96822e-07 0)
(165.65 -5.53187e-07 0)
(165.65 -7.72637e-07 0)
(165.65 -1.08907e-06 0)
(165.65 -1.54097e-06 0)
(165.65 -2.18371e-06 0)
(165.65 -3.11419e-06 0)
(165.65 -4.44789e-06 0)
(165.65 -6.34039e-06 0)
(165.65 -9.09491e-06 0)
(165.65 -1.30407e-05 0)
(165.65 -1.86022e-05 0)
(165.65 -2.66279e-05 0)
(165.65 -3.83038e-05 0)
(165.65 -5.47555e-05 0)
(165.65 -7.76829e-05 0)
(165.65 -0.000111052 0)
(165.65 -0.000159481 0)
(165.65 -0.000227189 0)
(165.65 -0.000323642 0)
(165.649 -0.000464606 0)
(165.649 -0.000670655 0)
(165.649 -0.000999815 0)
(165.648 -0.00158726 0)
(165.646 -0.00269255 0)
(165.642 -0.00480117 0)
(165.635 -0.00931065 0)
(165.616 -0.016417 0)
(165.65 -1.59486e-12 0)
(165.65 -7.3146e-12 0)
(165.65 -1.55004e-11 0)
(165.65 -2.20489e-11 0)
(165.65 -3.15111e-11 0)
(165.65 -4.57721e-11 0)
(165.65 -6.71416e-11 0)
(165.65 -9.60917e-11 0)
(165.65 -1.3898e-10 0)
(165.65 -2.0548e-10 0)
(165.65 -3.08085e-10 0)
(165.65 -4.62514e-10 0)
(165.65 -6.81623e-10 0)
(165.65 -9.83844e-10 0)
(165.65 -1.39327e-09 0)
(165.65 -1.94098e-09 0)
(165.65 -2.67849e-09 0)
(165.65 -3.68138e-09 0)
(165.65 -5.07011e-09 0)
(165.65 -7.03362e-09 0)
(165.65 -9.8136e-09 0)
(165.65 -1.36954e-08 0)
(165.65 -1.9041e-08 0)
(165.65 -2.63726e-08 0)
(165.65 -3.64581e-08 0)
(165.65 -5.03667e-08 0)
(165.65 -6.9643e-08 0)
(165.65 -9.66657e-08 0)
(165.65 -1.34786e-07 0)
(165.65 -1.88395e-07 0)
(165.65 -2.63549e-07 0)
(165.65 -3.69584e-07 0)
(165.65 -5.20708e-07 0)
(165.65 -7.37262e-07 0)
(165.65 -1.04879e-06 0)
(165.65 -1.49936e-06 0)
(165.65 -2.1524e-06 0)
(165.65 -3.0936e-06 0)
(165.65 -4.45121e-06 0)
(165.65 -6.41447e-06 0)
(165.65 -9.24301e-06 0)
(165.65 -1.33003e-05 0)
(165.65 -1.91328e-05 0)
(165.65 -2.75308e-05 0)
(165.65 -3.95477e-05 0)
(165.65 -5.66433e-05 0)
(165.65 -8.0968e-05 0)
(165.65 -0.000115714 0)
(165.65 -0.000164946 0)
(165.65 -0.00023424 0)
(165.65 -0.00033255 0)
(165.649 -0.000472556 0)
(165.649 -0.000670623 0)
(165.649 -0.000960487 0)
(165.648 -0.0014478 0)
(165.647 -0.00232928 0)
(165.644 -0.00401811 0)
(165.638 -0.00730438 0)
(165.626 -0.014357 0)
(165.597 -0.0259063 0)
(165.65 -1.40778e-12 0)
(165.65 -6.46636e-12 0)
(165.65 -1.27164e-11 0)
(165.65 -1.71335e-11 0)
(165.65 -2.35692e-11 0)
(165.65 -3.3762e-11 0)
(165.65 -5.34351e-11 0)
(165.65 -8.32659e-11 0)
(165.65 -1.29095e-10 0)
(165.65 -2.00395e-10 0)
(165.65 -3.099e-10 0)
(165.65 -4.72111e-10 0)
(165.65 -7.01648e-10 0)
(165.65 -1.01334e-09 0)
(165.65 -1.43486e-09 0)
(165.65 -2.00375e-09 0)
(165.65 -2.78823e-09 0)
(165.65 -3.88599e-09 0)
(165.65 -5.45477e-09 0)
(165.65 -7.71269e-09 0)
(165.65 -1.09073e-08 0)
(165.65 -1.53044e-08 0)
(165.65 -2.13526e-08 0)
(165.65 -2.97384e-08 0)
(165.65 -4.14191e-08 0)
(165.65 -5.77231e-08 0)
(165.65 -8.05725e-08 0)
(165.65 -1.13032e-07 0)
(165.65 -1.59475e-07 0)
(165.65 -2.25999e-07 0)
(165.65 -3.20438e-07 0)
(165.65 -4.55749e-07 0)
(165.65 -6.50521e-07 0)
(165.65 -9.32198e-07 0)
(165.65 -1.3454e-06 0)
(165.65 -1.94783e-06 0)
(165.65 -2.83246e-06 0)
(165.65 -4.1241e-06 0)
(165.65 -5.99964e-06 0)
(165.65 -8.74214e-06 0)
(165.65 -1.27381e-05 0)
(165.65 -1.84576e-05 0)
(165.65 -2.6721e-05 0)
(165.65 -3.87925e-05 0)
(165.65 -5.61635e-05 0)
(165.65 -8.08022e-05 0)
(165.65 -0.000116121 0)
(165.65 -0.000167157 0)
(165.65 -0.000239124 0)
(165.65 -0.000339798 0)
(165.649 -0.000483555 0)
(165.649 -0.000688054 0)
(165.649 -0.000974201 0)
(165.648 -0.00139785 0)
(165.647 -0.00211566 0)
(165.645 -0.0034368 0)
(165.64 -0.00601359 0)
(165.631 -0.011069 0)
(165.612 -0.0219011 0)
(165.566 -0.0400677 0)
(165.65 -1.94617e-12 0)
(165.65 -5.87107e-12 0)
(165.65 -8.78884e-12 0)
(165.65 -1.17819e-11 0)
(165.65 -1.65754e-11 0)
(165.65 -2.39625e-11 0)
(165.65 -4.00149e-11 0)
(165.65 -7.07e-11 0)
(165.65 -1.1876e-10 0)
(165.65 -1.93671e-10 0)
(165.65 -3.0657e-10 0)
(165.65 -4.68257e-10 0)
(165.65 -6.98061e-10 0)
(165.65 -1.01002e-09 0)
(165.65 -1.43303e-09 0)
(165.65 -2.01546e-09 0)
(165.65 -2.83508e-09 0)
(165.65 -4.01587e-09 0)
(165.65 -5.74713e-09 0)
(165.65 -8.26439e-09 0)
(165.65 -1.18239e-08 0)
(165.65 -1.67066e-08 0)
(165.65 -2.34356e-08 0)
(165.65 -3.28808e-08 0)
(165.65 -4.62646e-08 0)
(165.65 -6.52751e-08 0)
(165.65 -9.24017e-08 0)
(165.65 -1.31417e-07 0)
(165.65 -1.8773e-07 0)
(165.65 -2.693e-07 0)
(165.65 -3.87537e-07 0)
(165.65 -5.5954e-07 0)
(165.65 -8.10658e-07 0)
(165.65 -1.17941e-06 0)
(165.65 -1.72482e-06 0)
(165.65 -2.52874e-06 0)
(165.65 -3.71501e-06 0)
(165.65 -5.46361e-06 0)
(165.65 -8.03933e-06 0)
(165.65 -1.18277e-05 0)
(165.65 -1.73584e-05 0)
(165.65 -2.53711e-05 0)
(165.65 -3.7031e-05 0)
(165.65 -5.40556e-05 0)
(165.65 -7.88167e-05 0)
(165.65 -0.000114611 0)
(165.65 -0.000166406 0)
(165.65 -0.00024121 0)
(165.65 -0.000348165 0)
(165.649 -0.000500721 0)
(165.649 -0.000719576 0)
(165.649 -0.00103213 0)
(165.648 -0.00147969 0)
(165.647 -0.00216344 0)
(165.646 -0.00331033 0)
(165.642 -0.00542195 0)
(165.635 -0.00944449 0)
(165.62 -0.0171891 0)
(165.59 -0.0335318 0)
(165.519 -0.0614142 0)
(165.65 -1.27631e-12 0)
(165.65 -4.31511e-12 0)
(165.65 -5.67782e-12 0)
(165.65 -7.591e-12 0)
(165.65 -1.14733e-11 0)
(165.65 -1.63328e-11 0)
(165.65 -2.80049e-11 0)
(165.65 -5.49837e-11 0)
(165.65 -1.02314e-10 0)
(165.65 -1.75472e-10 0)
(165.65 -2.84955e-10 0)
(165.65 -4.39731e-10 0)
(165.65 -6.58104e-10 0)
(165.65 -9.56351e-10 0)
(165.65 -1.36332e-09 0)
(165.65 -1.93449e-09 0)
(165.65 -2.75475e-09 0)
(165.65 -3.96314e-09 0)
(165.65 -5.74885e-09 0)
(165.65 -8.33776e-09 0)
(165.65 -1.19684e-08 0)
(165.65 -1.69287e-08 0)
(165.65 -2.37605e-08 0)
(165.65 -3.34348e-08 0)
(165.65 -4.73426e-08 0)
(165.65 -6.74154e-08 0)
(165.65 -9.64851e-08 0)
(165.65 -1.38742e-07 0)
(165.65 -2.00282e-07 0)
(165.65 -2.90291e-07 0)
(165.65 -4.22635e-07 0)
(165.65 -6.17249e-07 0)
(165.65 -9.05076e-07 0)
(165.65 -1.33337e-06 0)
(165.65 -1.97495e-06 0)
(165.65 -2.93503e-06 0)
(165.65 -4.36979e-06 0)
(165.65 -6.51452e-06 0)
(165.65 -9.71342e-06 0)
(165.65 -1.44478e-05 0)
(165.65 -2.13992e-05 0)
(165.65 -3.15786e-05 0)
(165.65 -4.65469e-05 0)
(165.65 -6.86781e-05 0)
(165.65 -0.000101474 0)
(165.65 -0.000149623 0)
(165.65 -0.000219946 0)
(165.65 -0.000322156 0)
(165.649 -0.000470007 0)
(165.649 -0.000683397 0)
(165.649 -0.00099151 0)
(165.648 -0.00143787 0)
(165.648 -0.00209192 0)
(165.646 -0.003116 0)
(165.643 -0.00485067 0)
(165.638 -0.00799059 0)
(165.627 -0.0139107 0)
(165.604 -0.0251856 0)
(165.558 -0.0487383 0)
(165.451 -0.0896545 0)
(165.65 -1.10922e-12 0)
(165.65 -4.51797e-12 0)
(165.65 -6.61888e-12 0)
(165.65 -7.75529e-12 0)
(165.65 -7.82869e-12 0)
(165.65 -8.72043e-12 0)
(165.65 -1.73914e-11 0)
(165.65 -3.68925e-11 0)
(165.65 -7.61889e-11 0)
(165.65 -1.41564e-10 0)
(165.65 -2.40488e-10 0)
(165.65 -3.83251e-10 0)
(165.65 -5.83699e-10 0)
(165.65 -8.57131e-10 0)
(165.65 -1.23179e-09 0)
(165.65 -1.75884e-09 0)
(165.65 -2.52027e-09 0)
(165.65 -3.6543e-09 0)
(165.65 -5.34873e-09 0)
(165.65 -7.83398e-09 0)
(165.65 -1.1374e-08 0)
(165.65 -1.63134e-08 0)
(165.65 -2.32342e-08 0)
(165.65 -3.31426e-08 0)
(165.65 -4.75382e-08 0)
(165.65 -6.8603e-08 0)
(165.65 -9.95395e-08 0)
(165.65 -1.45164e-07 0)
(165.65 -2.12634e-07 0)
(165.65 -3.12632e-07 0)
(165.65 -4.61285e-07 0)
(165.65 -6.82416e-07 0)
(165.65 -1.0131e-06 0)
(165.65 -1.51117e-06 0)
(165.65 -2.26517e-06 0)
(165.65 -3.40704e-06 0)
(165.65 -5.13322e-06 0)
(165.65 -7.73872e-06 0)
(165.65 -1.16522e-05 0)
(165.65 -1.74938e-05 0)
(165.65 -2.61591e-05 0)
(165.65 -3.89671e-05 0)
(165.65 -5.79249e-05 0)
(165.65 -8.6219e-05 0)
(165.65 -0.000128776 0)
(165.65 -0.000192346 0)
(165.65 -0.000286487 0)
(165.649 -0.000424675 0)
(165.649 -0.000627494 0)
(165.649 -0.000926322 0)
(165.648 -0.00136086 0)
(165.648 -0.00199437 0)
(165.646 -0.00294741 0)
(165.644 -0.00449058 0)
(165.64 -0.00714763 0)
(165.632 -0.0118655 0)
(165.615 -0.0206036 0)
(165.582 -0.0369394 0)
(165.514 -0.0706996 0)
(165.355 -0.130503 0)
(165.65 -1.37676e-12 0)
(165.65 -6.27547e-12 0)
(165.65 -9.32199e-12 0)
(165.65 -9.00449e-12 0)
(165.65 -6.22719e-12 0)
(165.65 -4.20102e-12 0)
(165.65 -8.31608e-12 0)
(165.65 -1.89755e-11 0)
(165.65 -4.64149e-11 0)
(165.65 -9.89914e-11 0)
(165.65 -1.81699e-10 0)
(165.65 -3.04501e-10 0)
(165.65 -4.75542e-10 0)
(165.65 -7.10834e-10 0)
(165.65 -1.03602e-09 0)
(165.65 -1.49407e-09 0)
(165.65 -2.16103e-09 0)
(165.65 -3.1551e-09 0)
(165.65 -4.64485e-09 0)
(165.65 -6.86049e-09 0)
(165.65 -1.0121e-08 0)
(165.65 -1.48417e-08 0)
(165.65 -2.16176e-08 0)
(165.65 -3.13849e-08 0)
(165.65 -4.56336e-08 0)
(165.65 -6.66386e-08 0)
(165.65 -9.78656e-08 0)
(165.65 -1.44504e-07 0)
(165.65 -2.14235e-07 0)
(165.65 -3.1867e-07 0)
(165.65 -4.7554e-07 0)
(165.65 -7.11363e-07 0)