/*--------------------------------*- C++ -*----------------------------------*\
  =========                 |
  \\      /  F ield         | OpenFOAM: The Open Source CFD Toolbox
   \\    /   O peration     | Website:  https://openfoam.org
    \\  /    A nd           | Version:  9
     \\/     M anipulation  |
\*---------------------------------------------------------------------------*/
FoamFile
{
    format      ascii;
    class       volScalarField;
    location    "0.002";
    object      alphat;
}
// * * * * * * * * * * * * * * * * * * * * * * * * * * * * * * * * * * * * * //

dimensions      [1 -1 -1 0 0 0 0];

internalField   nonuniform List<scalar> 
36400
(
8.01237e-06
8.0005e-06
7.99069e-06
7.98092e-06
7.96895e-06
7.9525e-06
7.93558e-06
7.91686e-06
7.89755e-06
7.87881e-06
7.85904e-06
7.83964e-06
7.8214e-06
7.8051e-06
7.79134e-06
7.77956e-06
7.76966e-06
7.76191e-06
7.75638e-06
7.75249e-06
7.74931e-06
7.74642e-06
7.74367e-06
7.74054e-06
7.73631e-06
7.73128e-06
7.72743e-06
7.72685e-06
7.72964e-06
7.73378e-06
7.73709e-06
7.73879e-06
7.73513e-06
7.72718e-06
7.72122e-06
7.71919e-06
7.72016e-06
7.72135e-06
7.72307e-06
7.72731e-06
7.72977e-06
7.72958e-06
7.72766e-06
7.72448e-06
7.72065e-06
7.71743e-06
7.71434e-06
7.7122e-06
7.71128e-06
7.7112e-06
7.71223e-06
7.71494e-06
7.71531e-06
7.72485e-06
7.73671e-06
7.73808e-06
7.73078e-06
7.71936e-06
7.71434e-06
7.71929e-06
8.00248e-06
7.97592e-06
7.95385e-06
7.93493e-06
7.91802e-06
7.90221e-06
7.88706e-06
7.87228e-06
7.85798e-06
7.84423e-06
7.83112e-06
7.81884e-06
7.80764e-06
7.79797e-06
7.78989e-06
7.78301e-06
7.77732e-06
7.77297e-06
7.76992e-06
7.76775e-06
7.76578e-06
7.76363e-06
7.76139e-06
7.75927e-06
7.75735e-06
7.75585e-06
7.75522e-06
7.75567e-06
7.75689e-06
7.75824e-06
7.7592e-06
7.75964e-06
7.75956e-06
7.75904e-06
7.75844e-06
7.75799e-06
7.75765e-06
7.75746e-06
7.75751e-06
7.75773e-06
7.75764e-06
7.75768e-06
7.75776e-06
7.75773e-06
7.75759e-06
7.75751e-06
7.75728e-06
7.75712e-06
7.75709e-06
7.75719e-06
7.75748e-06
7.75798e-06
7.75847e-06
7.75905e-06
7.75943e-06
7.75934e-06
7.75918e-06
7.75887e-06
7.75867e-06
7.7581e-06
7.99968e-06
7.96707e-06
7.93779e-06
7.91182e-06
7.88902e-06
7.86923e-06
7.85231e-06
7.8381e-06
7.82644e-06
7.81708e-06
7.80964e-06
7.80373e-06
7.79895e-06
7.79503e-06
7.79172e-06
7.78878e-06
7.78615e-06
7.78387e-06
7.782e-06
7.78053e-06
7.77929e-06
7.77811e-06
7.77695e-06
7.77582e-06
7.77476e-06
7.77382e-06
7.77304e-06
7.77241e-06
7.7719e-06
7.77148e-06
7.77114e-06
7.77089e-06
7.77075e-06
7.77069e-06
7.7707e-06
7.77076e-06
7.77088e-06
7.77103e-06
7.77118e-06
7.77129e-06
7.77134e-06
7.77129e-06
7.77113e-06
7.77085e-06
7.77046e-06
7.77e-06
7.76948e-06
7.76893e-06
7.76839e-06
7.7679e-06
7.76747e-06
7.76713e-06
7.76684e-06
7.76659e-06
7.76637e-06
7.76618e-06
7.76602e-06
7.76587e-06
7.76567e-06
7.76516e-06
7.99899e-06
7.96449e-06
7.93235e-06
7.90279e-06
7.87607e-06
7.85249e-06
7.83236e-06
7.81589e-06
7.80316e-06
7.79402e-06
7.78803e-06
7.78451e-06
7.78268e-06
7.78178e-06
7.78122e-06
7.7806e-06
7.77974e-06
7.77865e-06
7.77743e-06
7.77623e-06
7.77513e-06
7.77418e-06
7.77338e-06
7.7727e-06
7.77206e-06
7.77142e-06
7.77075e-06
7.77004e-06
7.76933e-06
7.76868e-06
7.76815e-06
7.76777e-06
7.76758e-06
7.76756e-06
7.76769e-06
7.76794e-06
7.76826e-06
7.76857e-06
7.76883e-06
7.76898e-06
7.76899e-06
7.76885e-06
7.76858e-06
7.7682e-06
7.76776e-06
7.76729e-06
7.76681e-06
7.76634e-06
7.76589e-06
7.76546e-06
7.76506e-06
7.76468e-06
7.76433e-06
7.76402e-06
7.76377e-06
7.76359e-06
7.76347e-06
7.76341e-06
7.76339e-06
7.76328e-06
7.99882e-06
7.96382e-06
7.93077e-06
7.89988e-06
7.87146e-06
7.84594e-06
7.82378e-06
7.8054e-06
7.79107e-06
7.78078e-06
7.77416e-06
7.77053e-06
7.76901e-06
7.76871e-06
7.76887e-06
7.76896e-06
7.76873e-06
7.76814e-06
7.76728e-06
7.76631e-06
7.76534e-06
7.76449e-06
7.7638e-06
7.76325e-06
7.76281e-06
7.76243e-06
7.76206e-06
7.76169e-06
7.7613e-06
7.76093e-06
7.7606e-06
7.76035e-06
7.76021e-06
7.76018e-06
7.76027e-06
7.76045e-06
7.76069e-06
7.76093e-06
7.76112e-06
7.76123e-06
7.76124e-06
7.76113e-06
7.76094e-06
7.76068e-06
7.76038e-06
7.76008e-06
7.7598e-06
7.75954e-06
7.75931e-06
7.7591e-06
7.7589e-06
7.75871e-06
7.75853e-06
7.75837e-06
7.75824e-06
7.75815e-06
7.75809e-06
7.75809e-06
7.75813e-06
7.75822e-06
7.99879e-06
7.96365e-06
7.93035e-06
7.89905e-06
7.87004e-06
7.84377e-06
7.82073e-06
7.80143e-06
7.78618e-06
7.77506e-06
7.76775e-06
7.76362e-06
7.76179e-06
7.76133e-06
7.76145e-06
7.76159e-06
7.76147e-06
7.76101e-06
7.76029e-06
7.75945e-06
7.75861e-06
7.75786e-06
7.75725e-06
7.75677e-06
7.75642e-06
7.75616e-06
7.75595e-06
7.75577e-06
7.7556e-06
7.75543e-06
7.75528e-06
7.75515e-06
7.75508e-06
7.75505e-06
7.75509e-06
7.75517e-06
7.75528e-06
7.7554e-06
7.7555e-06
7.75555e-06
7.75556e-06
7.75551e-06
7.75541e-06
7.75529e-06
7.75515e-06
7.75501e-06
7.75489e-06
7.75478e-06
7.75469e-06
7.75462e-06
7.75455e-06
7.75448e-06
7.75441e-06
7.75435e-06
7.7543e-06
7.75427e-06
7.75425e-06
7.75425e-06
7.75429e-06
7.75439e-06
7.99878e-06
7.96361e-06
7.93025e-06
7.89883e-06
7.86965e-06
7.84313e-06
7.81979e-06
7.80013e-06
7.78451e-06
7.77302e-06
7.76536e-06
7.76093e-06
7.75885e-06
7.75822e-06
7.75822e-06
7.75829e-06
7.75814e-06
7.75769e-06
7.75701e-06
7.75622e-06
7.75544e-06
7.75475e-06
7.75419e-06
7.75377e-06
7.75346e-06
7.75325e-06
7.7531e-06
7.75299e-06
7.7529e-06
7.75282e-06
7.75276e-06
7.75271e-06
7.75267e-06
7.75266e-06
7.75267e-06
7.7527e-06
7.75274e-06
7.75278e-06
7.75282e-06
7.75284e-06
7.75285e-06
7.75283e-06
7.75279e-06
7.75275e-06
7.7527e-06
7.75264e-06
7.7526e-06
7.75256e-06
7.75253e-06
7.75251e-06
7.75249e-06
7.75247e-06
7.75245e-06
7.75243e-06
7.75242e-06
7.75241e-06
7.7524e-06
7.7524e-06
7.75242e-06
7.75248e-06
7.99877e-06
7.9636e-06
7.93022e-06
7.89877e-06
7.86955e-06
7.84296e-06
7.81953e-06
7.79976e-06
7.78401e-06
7.77238e-06
7.76459e-06
7.76004e-06
7.75785e-06
7.75713e-06
7.75706e-06
7.75709e-06
7.75691e-06
7.75645e-06
7.75578e-06
7.755e-06
7.75425e-06
7.75358e-06
7.75305e-06
7.75264e-06
7.75236e-06
7.75216e-06
7.75203e-06
7.75195e-06
7.75189e-06
7.75185e-06
7.75182e-06
7.7518e-06
7.75178e-06
7.75178e-06
7.75178e-06
7.75179e-06
7.7518e-06
7.75181e-06
7.75183e-06
7.75183e-06
7.75183e-06
7.75183e-06
7.75182e-06
7.7518e-06
7.75179e-06
7.75177e-06
7.75176e-06
7.75175e-06
7.75174e-06
7.75173e-06
7.75173e-06
7.75172e-06
7.75172e-06
7.75171e-06
7.75171e-06
7.7517e-06
7.7517e-06
7.7517e-06
7.75171e-06
7.75173e-06
7.99877e-06
7.9636e-06
7.93022e-06
7.89876e-06
7.86952e-06
7.84292e-06
7.81946e-06
7.79966e-06
7.78388e-06
7.7722e-06
7.76437e-06
7.75978e-06
7.75756e-06
7.7568e-06
7.75671e-06
7.75671e-06
7.75652e-06
7.75606e-06
7.75538e-06
7.75461e-06
7.75386e-06
7.7532e-06
7.75268e-06
7.75228e-06
7.752e-06
7.75181e-06
7.75169e-06
7.75161e-06
7.75157e-06
7.75154e-06
7.75152e-06
7.75151e-06
7.7515e-06
7.7515e-06
7.7515e-06
7.7515e-06
7.7515e-06
7.75151e-06
7.75151e-06
7.75151e-06
7.75151e-06
7.75151e-06
7.75151e-06
7.75151e-06
7.7515e-06
7.7515e-06
7.75149e-06
7.75149e-06
7.75149e-06
7.75149e-06
7.75149e-06
7.75148e-06
7.75148e-06
7.75148e-06
7.75148e-06
7.75148e-06
7.75148e-06
7.75148e-06
7.75148e-06
7.75149e-06
7.99877e-06
7.9636e-06
7.93021e-06
7.89876e-06
7.86952e-06
7.84291e-06
7.81945e-06
7.79964e-06
7.78384e-06
7.77216e-06
7.76432e-06
7.75971e-06
7.75748e-06
7.75671e-06
7.75661e-06
7.75661e-06
7.75641e-06
7.75594e-06
7.75527e-06
7.7545e-06
7.75375e-06
7.7531e-06
7.75257e-06
7.75218e-06
7.7519e-06
7.75171e-06
7.75159e-06
7.75152e-06
7.75148e-06
7.75145e-06
7.75144e-06
7.75143e-06
7.75142e-06
7.75142e-06
7.75142e-06
7.75142e-06
7.75142e-06
7.75142e-06
7.75142e-06
7.75143e-06
7.75143e-06
7.75143e-06
7.75142e-06
7.75142e-06
7.75142e-06
7.75142e-06
7.75142e-06
7.75142e-06
7.75142e-06
7.75142e-06
7.75142e-06
7.75142e-06
7.75142e-06
7.75142e-06
7.75142e-06
7.75142e-06
7.75142e-06
7.75142e-06
7.75142e-06
7.75142e-06
7.99877e-06
7.9636e-06
7.93021e-06
7.89876e-06
7.86951e-06
7.84291e-06
7.81944e-06
7.79963e-06
7.78384e-06
7.77215e-06
7.7643e-06
7.75969e-06
7.75746e-06
7.75669e-06
7.75659e-06
7.75658e-06
7.75639e-06
7.75592e-06
7.75524e-06
7.75447e-06
7.75372e-06
7.75307e-06
7.75254e-06
7.75215e-06
7.75187e-06
7.75169e-06
7.75157e-06
7.7515e-06
7.75145e-06
7.75143e-06
7.75142e-06
7.75141e-06
7.75141e-06
7.7514e-06
7.7514e-06
7.7514e-06
7.7514e-06
7.7514e-06
7.7514e-06
7.7514e-06
7.7514e-06
7.7514e-06
7.7514e-06
7.7514e-06
7.7514e-06
7.7514e-06
7.7514e-06
7.7514e-06
7.7514e-06
7.7514e-06
7.7514e-06
7.7514e-06
7.7514e-06
7.7514e-06
7.7514e-06
7.7514e-06
7.7514e-06
7.7514e-06
7.7514e-06
7.7514e-06
7.99877e-06
7.9636e-06
7.93021e-06
7.89876e-06
7.86951e-06
7.84291e-06
7.81944e-06
7.79963e-06
7.78383e-06
7.77215e-06
7.7643e-06
7.75969e-06
7.75745e-06
7.75668e-06
7.75658e-06
7.75658e-06
7.75638e-06
7.75591e-06
7.75523e-06
7.75447e-06
7.75372e-06
7.75306e-06
7.75254e-06
7.75214e-06
7.75187e-06
7.75168e-06
7.75156e-06
7.75149e-06
7.75145e-06
7.75142e-06
7.75141e-06
7.7514e-06
7.7514e-06
7.7514e-06
7.7514e-06
7.7514e-06
7.7514e-06
7.7514e-06
7.7514e-06
7.7514e-06
7.7514e-06
7.7514e-06
7.7514e-06
7.7514e-06
7.7514e-06
7.7514e-06
7.7514e-06
7.7514e-06
7.7514e-06
7.7514e-06
7.7514e-06
7.7514e-06
7.7514e-06
7.7514e-06
7.7514e-06
7.7514e-06
7.7514e-06
7.7514e-06
7.7514e-06
7.7514e-06
7.99877e-06
7.9636e-06
7.93021e-06
7.89876e-06
7.86951e-06
7.84291e-06
7.81944e-06
7.79963e-06
7.78383e-06
7.77215e-06
7.7643e-06
7.75969e-06
7.75745e-06
7.75668e-06
7.75658e-06
7.75658e-06
7.75638e-06
7.75591e-06
7.75523e-06
7.75446e-06
7.75372e-06
7.75306e-06
7.75254e-06
7.75214e-06
7.75187e-06
7.75168e-06
7.75156e-06
7.75149e-06
7.75145e-06
7.75142e-06
7.75141e-06
7.7514e-06
7.7514e-06
7.7514e-06
7.7514e-06
7.7514e-06
7.7514e-06
7.7514e-06
7.7514e-06
7.7514e-06
7.7514e-06
7.7514e-06
7.7514e-06
7.7514e-06
7.7514e-06
7.7514e-06
7.7514e-06
7.7514e-06
7.7514e-06
7.7514e-06
7.7514e-06
7.7514e-06
7.7514e-06
7.7514e-06
7.7514e-06
7.7514e-06
7.7514e-06
7.7514e-06
7.7514e-06
7.7514e-06
7.99877e-06
7.9636e-06
7.93021e-06
7.89876e-06
7.86951e-06
7.84291e-06
7.81944e-06
7.79963e-06
7.78383e-06
7.77215e-06
7.7643e-06
7.75969e-06
7.75745e-06
7.75668e-06
7.75658e-06
7.75658e-06
7.75638e-06
7.75591e-06
7.75523e-06
7.75446e-06
7.75372e-06
7.75306e-06
7.75254e-06
7.75214e-06
7.75187e-06
7.75168e-06
7.75156e-06
7.75149e-06
7.75145e-06
7.75142e-06
7.75141e-06
7.7514e-06
7.7514e-06
7.7514e-06
7.7514e-06
7.7514e-06
7.7514e-06
7.7514e-06
7.7514e-06
7.7514e-06
7.7514e-06
7.7514e-06
7.7514e-06
7.7514e-06
7.7514e-06
7.7514e-06
7.7514e-06
7.7514e-06
7.7514e-06
7.7514e-06
7.7514e-06
7.7514e-06
7.7514e-06
7.7514e-06
7.7514e-06
7.7514e-06
7.7514e-06
7.7514e-06
7.7514e-06
7.7514e-06
7.99877e-06
7.9636e-06
7.93021e-06
7.89876e-06
7.86951e-06
7.84291e-06
7.81944e-06
7.79963e-06
7.78383e-06
7.77215e-06
7.7643e-06
7.75969e-06
7.75745e-06
7.75668e-06
7.75658e-06
7.75658e-06
7.75638e-06
7.75591e-06
7.75523e-06
7.75446e-06
7.75372e-06
7.75306e-06
7.75254e-06
7.75214e-06
7.75187e-06
7.75168e-06
7.75156e-06
7.75149e-06
7.75145e-06
7.75142e-06
7.75141e-06
7.7514e-06
7.7514e-06
7.7514e-06
7.7514e-06
7.7514e-06
7.7514e-06
7.7514e-06
7.7514e-06
7.7514e-06
7.7514e-06
7.7514e-06
7.7514e-06
7.7514e-06
7.7514e-06
7.7514e-06
7.7514e-06
7.7514e-06
7.7514e-06
7.7514e-06
7.7514e-06
7.7514e-06
7.7514e-06
7.7514e-06
7.7514e-06
7.7514e-06
7.7514e-06
7.7514e-06
7.7514e-06
7.7514e-06
7.99877e-06
7.9636e-06
7.93021e-06
7.89876e-06
7.86951e-06
7.84291e-06
7.81944e-06
7.79963e-06
7.78383e-06
7.77215e-06
7.7643e-06
7.75969e-06
7.75745e-06
7.75668e-06
7.75658e-06
7.75658e-06
7.75638e-06
7.75591e-06
7.75523e-06
7.75446e-06
7.75372e-06
7.75306e-06
7.75254e-06
7.75214e-06
7.75187e-06
7.75168e-06
7.75156e-06
7.75149e-06
7.75145e-06
7.75142e-06
7.75141e-06
7.7514e-06
7.7514e-06
7.7514e-06
7.7514e-06
7.7514e-06
7.7514e-06
7.7514e-06
7.7514e-06
7.7514e-06
7.7514e-06
7.7514e-06
7.7514e-06
7.7514e-06
7.7514e-06
7.7514e-06
7.7514e-06
7.7514e-06
7.7514e-06
7.7514e-06
7.7514e-06
7.7514e-06
7.7514e-06
7.7514e-06
7.7514e-06
7.7514e-06
7.7514e-06
7.7514e-06
7.7514e-06
7.7514e-06
7.99877e-06
7.9636e-06
7.93021e-06
7.89876e-06
7.86951e-06
7.84291e-06
7.81944e-06
7.79963e-06
7.78383e-06
7.77215e-06
7.7643e-06
7.75969e-06
7.75745e-06
7.75668e-06
7.75658e-06
7.75658e-06
7.75638e-06
7.75591e-06
7.75523e-06
7.75446e-06
7.75372e-06
7.75306e-06
7.75254e-06
7.75214e-06
7.75187e-06
7.75168e-06
7.75156e-06
7.75149e-06
7.75145e-06
7.75142e-06
7.75141e-06
7.7514e-06
7.7514e-06
7.7514e-06
7.7514e-06
7.7514e-06
7.7514e-06
7.7514e-06
7.7514e-06
7.7514e-06
7.7514e-06
7.7514e-06
7.7514e-06
7.7514e-06
7.7514e-06
7.7514e-06
7.7514e-06
7.7514e-06
7.7514e-06
7.7514e-06
7.7514e-06
7.7514e-06
7.7514e-06
7.7514e-06
7.7514e-06
7.7514e-06
7.7514e-06
7.7514e-06
7.7514e-06
7.7514e-06
7.99877e-06
7.9636e-06
7.93021e-06
7.89876e-06
7.86951e-06
7.84291e-06
7.81944e-06
7.79963e-06
7.78383e-06
7.77215e-06
7.7643e-06
7.75969e-06
7.75745e-06
7.75668e-06
7.75658e-06
7.75658e-06
7.75638e-06
7.75591e-06
7.75523e-06
7.75446e-06
7.75372e-06
7.75306e-06
7.75254e-06
7.75214e-06
7.75187e-06
7.75168e-06
7.75156e-06
7.75149e-06
7.75145e-06
7.75142e-06
7.75141e-06
7.7514e-06
7.7514e-06
7.7514e-06
7.7514e-06
7.7514e-06
7.7514e-06
7.7514e-06
7.7514e-06
7.7514e-06
7.7514e-06
7.7514e-06
7.7514e-06
7.7514e-06
7.7514e-06
7.7514e-06
7.7514e-06
7.7514e-06
7.7514e-06
7.7514e-06
7.7514e-06
7.7514e-06
7.7514e-06
7.7514e-06
7.7514e-06
7.7514e-06
7.7514e-06
7.7514e-06
7.7514e-06
7.7514e-06
7.99877e-06
7.9636e-06
7.93021e-06
7.89876e-06
7.86951e-06
7.84291e-06
7.81944e-06
7.79963e-06
7.78383e-06
7.77215e-06
7.7643e-06
7.75969e-06
7.75745e-06
7.75668e-06
7.75658e-06
7.75658e-06
7.75638e-06
7.75591e-06
7.75523e-06
7.75446e-06
7.75372e-06
7.75306e-06
7.75254e-06
7.75214e-06
7.75187e-06
7.75168e-06
7.75156e-06
7.75149e-06
7.75145e-06
7.75142e-06
7.75141e-06
7.7514e-06
7.7514e-06
7.7514e-06
7.7514e-06
7.7514e-06
7.7514e-06
7.7514e-06
7.7514e-06
7.7514e-06
7.7514e-06
7.7514e-06
7.7514e-06
7.7514e-06
7.7514e-06
7.7514e-06
7.7514e-06
7.7514e-06
7.7514e-06
7.7514e-06
7.7514e-06
7.7514e-06
7.7514e-06
7.7514e-06
7.7514e-06
7.7514e-06
7.7514e-06
7.7514e-06
7.7514e-06
7.7514e-06
7.99877e-06
7.9636e-06
7.93021e-06
7.89876e-06
7.86951e-06
7.84291e-06
7.81944e-06
7.79963e-06
7.78383e-06
7.77215e-06
7.7643e-06
7.75969e-06
7.75745e-06
7.75668e-06
7.75658e-06
7.75658e-06
7.75638e-06
7.75591e-06
7.75523e-06
7.75446e-06
7.75372e-06
7.75306e-06
7.75254e-06
7.75214e-06
7.75187e-06
7.75168e-06
7.75156e-06
7.75149e-06
7.75145e-06
7.75142e-06
7.75141e-06
7.7514e-06
7.7514e-06
7.7514e-06
7.7514e-06
7.7514e-06
7.7514e-06
7.7514e-06
7.7514e-06
7.7514e-06
7.7514e-06
7.7514e-06
7.7514e-06
7.7514e-06
7.7514e-06
7.7514e-06
7.7514e-06
7.7514e-06
7.7514e-06
7.7514e-06
7.7514e-06
7.7514e-06
7.7514e-06
7.7514e-06
7.7514e-06
7.7514e-06
7.7514e-06
7.7514e-06
7.7514e-06
7.7514e-06
7.99877e-06
7.9636e-06
7.93021e-06
7.89876e-06
7.86951e-06
7.84291e-06
7.81944e-06
7.79963e-06
7.78383e-06
7.77215e-06
7.7643e-06
7.75969e-06
7.75745e-06
7.75668e-06
7.75658e-06
7.75658e-06
7.75638e-06
7.75591e-06
7.75523e-06
7.75446e-06
7.75372e-06
7.75306e-06
7.75254e-06
7.75214e-06
7.75187e-06
7.75168e-06
7.75156e-06
7.75149e-06
7.75145e-06
7.75142e-06
7.75141e-06
7.7514e-06
7.7514e-06
7.7514e-06
7.7514e-06
7.7514e-06
7.7514e-06
7.7514e-06
7.7514e-06
7.7514e-06
7.7514e-06
7.7514e-06
7.7514e-06
7.7514e-06
7.7514e-06
7.7514e-06
7.7514e-06
7.7514e-06
7.7514e-06
7.7514e-06
7.7514e-06
7.7514e-06
7.7514e-06
7.7514e-06
7.7514e-06
7.7514e-06
7.7514e-06
7.7514e-06
7.7514e-06
7.7514e-06
7.99877e-06
7.9636e-06
7.93021e-06
7.89876e-06
7.86951e-06
7.84291e-06
7.81944e-06
7.79963e-06
7.78383e-06
7.77215e-06
7.7643e-06
7.75969e-06
7.75745e-06
7.75668e-06
7.75658e-06
7.75658e-06
7.75638e-06
7.75591e-06
7.75523e-06
7.75446e-06
7.75372e-06
7.75306e-06
7.75254e-06
7.75214e-06
7.75187e-06
7.75168e-06
7.75156e-06
7.75149e-06
7.75145e-06
7.75142e-06
7.75141e-06
7.7514e-06
7.7514e-06
7.7514e-06
7.7514e-06
7.7514e-06
7.7514e-06
7.7514e-06
7.7514e-06
7.7514e-06
7.7514e-06
7.7514e-06
7.7514e-06
7.7514e-06
7.7514e-06
7.7514e-06
7.7514e-06
7.7514e-06
7.7514e-06
7.7514e-06
7.7514e-06
7.7514e-06
7.7514e-06
7.7514e-06
7.7514e-06
7.7514e-06
7.7514e-06
7.7514e-06
7.7514e-06
7.7514e-06
7.99877e-06
7.9636e-06
7.93021e-06
7.89876e-06
7.86951e-06
7.84291e-06
7.81944e-06
7.79963e-06
7.78383e-06
7.77215e-06
7.7643e-06
7.75969e-06
7.75745e-06
7.75668e-06
7.75658e-06
7.75658e-06
7.75638e-06
7.75591e-06
7.75523e-06
7.75446e-06
7.75372e-06
7.75306e-06
7.75254e-06
7.75214e-06
7.75187e-06
7.75168e-06
7.75156e-06
7.75149e-06
7.75145e-06
7.75142e-06
7.75141e-06
7.7514e-06
7.7514e-06
7.7514e-06
7.7514e-06
7.7514e-06
7.7514e-06
7.7514e-06
7.7514e-06
7.7514e-06
7.7514e-06
7.7514e-06
7.7514e-06
7.7514e-06
7.7514e-06
7.7514e-06
7.7514e-06
7.7514e-06
7.7514e-06
7.7514e-06
7.7514e-06
7.7514e-06
7.7514e-06
7.7514e-06
7.7514e-06
7.7514e-06
7.7514e-06
7.7514e-06
7.7514e-06
7.7514e-06
7.99877e-06
7.9636e-06
7.93021e-06
7.89876e-06
7.86951e-06
7.84291e-06
7.81944e-06
7.79963e-06
7.78383e-06
7.77215e-06
7.7643e-06
7.75969e-06
7.75745e-06
7.75668e-06
7.75658e-06
7.75658e-06
7.75638e-06
7.75591e-06
7.75523e-06
7.75446e-06
7.75372e-06
7.75306e-06
7.75254e-06
7.75214e-06
7.75187e-06
7.75168e-06
7.75156e-06
7.75149e-06
7.75145e-06
7.75142e-06
7.75141e-06
7.7514e-06
7.7514e-06
7.7514e-06
7.7514e-06
7.7514e-06
7.7514e-06
7.7514e-06
7.7514e-06
7.7514e-06
7.7514e-06
7.7514e-06
7.7514e-06
7.7514e-06
7.7514e-06
7.7514e-06
7.7514e-06
7.7514e-06
7.7514e-06
7.7514e-06
7.7514e-06
7.7514e-06
7.7514e-06
7.7514e-06
7.7514e-06
7.7514e-06
7.7514e-06
7.7514e-06
7.7514e-06
7.7514e-06
7.99877e-06
7.9636e-06
7.93021e-06
7.89876e-06
7.86951e-06
7.84291e-06
7.81944e-06
7.79963e-06
7.78383e-06
7.77215e-06
7.7643e-06
7.75969e-06
7.75745e-06
7.75668e-06
7.75658e-06
7.75658e-06
7.75638e-06
7.75591e-06
7.75523e-06
7.75446e-06
7.75372e-06
7.75306e-06
7.75254e-06
7.75214e-06
7.75187e-06
7.75168e-06
7.75156e-06
7.75149e-06
7.75145e-06
7.75142e-06
7.75141e-06
7.7514e-06
7.7514e-06
7.7514e-06
7.7514e-06
7.7514e-06
7.7514e-06
7.7514e-06
7.7514e-06
7.7514e-06
7.7514e-06
7.7514e-06
7.7514e-06
7.7514e-06
7.7514e-06
7.7514e-06
7.7514e-06
7.7514e-06
7.7514e-06
7.7514e-06
7.7514e-06
7.7514e-06
7.7514e-06
7.7514e-06
7.7514e-06
7.7514e-06
7.7514e-06
7.7514e-06
7.7514e-06
7.7514e-06
7.99877e-06
7.9636e-06
7.93021e-06
7.89876e-06
7.86951e-06
7.84291e-06
7.81944e-06
7.79963e-06
7.78383e-06
7.77215e-06
7.7643e-06
7.75969e-06
7.75745e-06
7.75668e-06
7.75658e-06
7.75658e-06
7.75638e-06
7.75591e-06
7.75523e-06
7.75446e-06
7.75372e-06
7.75306e-06
7.75254e-06
7.75214e-06
7.75187e-06
7.75168e-06
7.75156e-06
7.75149e-06
7.75145e-06
7.75142e-06
7.75141e-06
7.7514e-06
7.7514e-06
7.7514e-06
7.7514e-06
7.7514e-06
7.7514e-06
7.7514e-06
7.7514e-06
7.7514e-06
7.7514e-06
7.7514e-06
7.7514e-06
7.7514e-06
7.7514e-06
7.7514e-06
7.7514e-06
7.7514e-06
7.7514e-06
7.7514e-06
7.7514e-06
7.7514e-06
7.7514e-06
7.7514e-06
7.7514e-06
7.7514e-06
7.7514e-06
7.7514e-06
7.7514e-06
7.7514e-06
7.99877e-06
7.9636e-06
7.93021e-06
7.89876e-06
7.86951e-06
7.84291e-06
7.81944e-06
7.79963e-06
7.78383e-06
7.77215e-06
7.7643e-06
7.75969e-06
7.75745e-06
7.75668e-06
7.75658e-06
7.75658e-06
7.75638e-06
7.75591e-06
7.75523e-06
7.75446e-06
7.75372e-06
7.75306e-06
7.75254e-06
7.75214e-06
7.75187e-06
7.75168e-06
7.75156e-06
7.75149e-06
7.75145e-06
7.75142e-06
7.75141e-06
7.7514e-06
7.7514e-06
7.7514e-06
7.7514e-06
7.7514e-06
7.7514e-06
7.7514e-06
7.7514e-06
7.7514e-06
7.7514e-06
7.7514e-06
7.7514e-06
7.7514e-06
7.7514e-06
7.7514e-06
7.7514e-06
7.7514e-06
7.7514e-06
7.7514e-06
7.7514e-06
7.7514e-06
7.7514e-06
7.7514e-06
7.7514e-06
7.7514e-06
7.7514e-06
7.7514e-06
7.7514e-06
7.7514e-06
7.99877e-06
7.9636e-06
7.93021e-06
7.89876e-06
7.86951e-06
7.84291e-06
7.81944e-06
7.79963e-06
7.78383e-06
7.77215e-06
7.7643e-06
7.75969e-06
7.75745e-06
7.75668e-06
7.75658e-06
7.75658e-06
7.75638e-06
7.75591e-06
7.75523e-06
7.75446e-06
7.75372e-06
7.75306e-06
7.75254e-06
7.75214e-06
7.75187e-06
7.75168e-06
7.75156e-06
7.75149e-06
7.75145e-06
7.75142e-06
7.75141e-06
7.7514e-06
7.7514e-06
7.7514e-06
7.7514e-06
7.7514e-06
7.7514e-06
7.7514e-06
7.7514e-06
7.7514e-06
7.7514e-06
7.7514e-06
7.7514e-06
7.7514e-06
7.7514e-06
7.7514e-06
7.7514e-06
7.7514e-06
7.7514e-06
7.7514e-06
7.7514e-06
7.7514e-06
7.7514e-06
7.7514e-06
7.7514e-06
7.7514e-06
7.7514e-06
7.7514e-06
7.7514e-06
7.7514e-06
7.99877e-06
7.9636e-06
7.93021e-06
7.89876e-06
7.86951e-06
7.84291e-06
7.81944e-06
7.79963e-06
7.78383e-06
7.77215e-06
7.7643e-06
7.75969e-06
7.75745e-06
7.75668e-06
7.75658e-06
7.75658e-06
7.75638e-06
7.75591e-06
7.75523e-06
7.75446e-06
7.75372e-06
7.75306e-06
7.75254e-06
7.75214e-06
7.75187e-06
7.75168e-06
7.75156e-06
7.75149e-06
7.75145e-06
7.75142e-06
7.75141e-06
7.7514e-06
7.7514e-06
7.7514e-06
7.7514e-06
7.7514e-06
7.7514e-06
7.7514e-06
7.7514e-06
7.7514e-06
7.7514e-06
7.7514e-06
7.7514e-06
7.7514e-06
7.7514e-06
7.7514e-06
7.7514e-06
7.7514e-06
7.7514e-06
7.7514e-06
7.7514e-06
7.7514e-06
7.7514e-06
7.7514e-06
7.7514e-06
7.7514e-06
7.7514e-06
7.7514e-06
7.7514e-06
7.7514e-06
7.99877e-06
7.9636e-06
7.93021e-06
7.89876e-06
7.86951e-06
7.84291e-06
7.81944e-06
7.79963e-06
7.78383e-06
7.77215e-06
7.7643e-06
7.75969e-06
7.75745e-06
7.75668e-06
7.75658e-06
7.75658e-06
7.75638e-06
7.75591e-06
7.75523e-06
7.75446e-06
7.75372e-06
7.75306e-06
7.75254e-06
7.75214e-06
7.75187e-06
7.75168e-06
7.75156e-06
7.75149e-06
7.75145e-06
7.75142e-06
7.75141e-06
7.7514e-06
7.7514e-06
7.7514e-06
7.7514e-06
7.7514e-06
7.7514e-06
7.7514e-06
7.7514e-06
7.7514e-06
7.7514e-06
7.7514e-06
7.7514e-06
7.7514e-06
7.7514e-06
7.7514e-06
7.7514e-06
7.7514e-06
7.7514e-06
7.7514e-06
7.7514e-06
7.7514e-06
7.7514e-06
7.7514e-06
7.7514e-06
7.7514e-06
7.7514e-06
7.7514e-06
7.7514e-06
7.7514e-06
7.99877e-06
7.9636e-06
7.93021e-06
7.89876e-06
7.86951e-06
7.84291e-06
7.81944e-06
7.79963e-06
7.78383e-06
7.77215e-06
7.7643e-06
7.75969e-06
7.75745e-06
7.75668e-06
7.75658e-06
7.75658e-06
7.75638e-06
7.75591e-06
7.75523e-06
7.75446e-06
7.75372e-06
7.75306e-06
7.75254e-06
7.75214e-06
7.75187e-06
7.75168e-06
7.75156e-06
7.75149e-06
7.75145e-06
7.75142e-06
7.75141e-06
7.7514e-06
7.7514e-06
7.7514e-06
7.7514e-06
7.7514e-06
7.7514e-06
7.7514e-06
7.7514e-06
7.7514e-06
7.7514e-06
7.7514e-06
7.7514e-06
7.7514e-06
7.7514e-06
7.7514e-06
7.7514e-06
7.7514e-06
7.7514e-06
7.7514e-06
7.7514e-06
7.7514e-06
7.7514e-06
7.7514e-06
7.7514e-06
7.7514e-06
7.7514e-06
7.7514e-06
7.7514e-06
7.7514e-06
7.99877e-06
7.9636e-06
7.93021e-06
7.89876e-06
7.86951e-06
7.84291e-06
7.81944e-06
7.79963e-06
7.78383e-06
7.77215e-06
7.7643e-06
7.75969e-06
7.75745e-06
7.75668e-06
7.75658e-06
7.75658e-06
7.75638e-06
7.75591e-06
7.75523e-06
7.75446e-06
7.75372e-06
7.75306e-06
7.75254e-06
7.75214e-06
7.75187e-06
7.75168e-06
7.75156e-06
7.75149e-06
7.75145e-06
7.75142e-06
7.75141e-06
7.7514e-06
7.7514e-06
7.7514e-06
7.7514e-06
7.7514e-06
7.7514e-06
7.7514e-06
7.7514e-06
7.7514e-06
7.7514e-06
7.7514e-06
7.7514e-06
7.7514e-06
7.7514e-06
7.7514e-06
7.7514e-06
7.7514e-06
7.7514e-06
7.7514e-06
7.7514e-06
7.7514e-06
7.7514e-06
7.7514e-06
7.7514e-06
7.7514e-06
7.7514e-06
7.7514e-06
7.7514e-06
7.7514e-06
7.99877e-06
7.9636e-06
7.93021e-06
7.89876e-06
7.86951e-06
7.84291e-06
7.81944e-06
7.79963e-06
7.78383e-06
7.77215e-06
7.7643e-06
7.75969e-06
7.75745e-06
7.75668e-06
7.75658e-06
7.75658e-06
7.75638e-06
7.75591e-06
7.75523e-06
7.75446e-06
7.75372e-06
7.75306e-06
7.75254e-06
7.75214e-06
7.75187e-06
7.75168e-06
7.75156e-06
7.75149e-06
7.75145e-06
7.75142e-06
7.75141e-06
7.7514e-06
7.7514e-06
7.7514e-06
7.7514e-06
7.7514e-06
7.7514e-06
7.7514e-06
7.7514e-06
7.7514e-06
7.7514e-06
7.7514e-06
7.7514e-06
7.7514e-06
7.7514e-06
7.7514e-06
7.7514e-06
7.7514e-06
7.7514e-06
7.7514e-06
7.7514e-06
7.7514e-06
7.7514e-06
7.7514e-06
7.7514e-06
7.7514e-06
7.7514e-06
7.7514e-06
7.7514e-06
7.7514e-06
7.99877e-06
7.9636e-06
7.93021e-06
7.89876e-06
7.86951e-06
7.84291e-06
7.81944e-06
7.79963e-06
7.78383e-06
7.77215e-06
7.7643e-06
7.75969e-06
7.75745e-06
7.75668e-06
7.75658e-06
7.75658e-06
7.75638e-06
7.75591e-06
7.75523e-06
7.75446e-06
7.75372e-06
7.75306e-06
7.75254e-06
7.75214e-06
7.75187e-06
7.75168e-06
7.75156e-06
7.75149e-06
7.75145e-06
7.75142e-06
7.75141e-06
7.7514e-06
7.7514e-06
7.7514e-06
7.7514e-06
7.7514e-06
7.7514e-06
7.7514e-06
7.7514e-06
7.7514e-06
7.7514e-06
7.7514e-06
7.7514e-06
7.7514e-06
7.7514e-06
7.7514e-06
7.7514e-06
7.7514e-06
7.7514e-06
7.7514e-06
7.7514e-06
7.7514e-06
7.7514e-06
7.7514e-06
7.7514e-06
7.7514e-06
7.7514e-06
7.7514e-06
7.7514e-06
7.7514e-06
7.99877e-06
7.9636e-06
7.93021e-06
7.89876e-06
7.86951e-06
7.84291e-06
7.81944e-06
7.79963e-06
7.78383e-06
7.77215e-06
7.7643e-06
7.75969e-06
7.75745e-06
7.75668e-06
7.75658e-06
7.75658e-06
7.75638e-06
7.75591e-06
7.75523e-06
7.75446e-06
7.75372e-06
7.75306e-06
7.75254e-06
7.75214e-06
7.75187e-06
7.75168e-06
7.75156e-06
7.75149e-06
7.75145e-06
7.75142e-06
7.75141e-06
7.7514e-06
7.7514e-06
7.7514e-06
7.7514e-06
7.7514e-06
7.7514e-06
7.7514e-06
7.7514e-06
7.7514e-06
7.7514e-06
7.7514e-06
7.7514e-06
7.7514e-06
7.7514e-06
7.7514e-06
7.7514e-06
7.7514e-06
7.7514e-06
7.7514e-06
7.7514e-06
7.7514e-06
7.7514e-06
7.7514e-06
7.7514e-06
7.7514e-06
7.7514e-06
7.7514e-06
7.7514e-06
7.7514e-06
7.99877e-06
7.9636e-06
7.93021e-06
7.89876e-06
7.86951e-06
7.84291e-06
7.81944e-06
7.79963e-06
7.78383e-06
7.77215e-06
7.7643e-06
7.75969e-06
7.75745e-06
7.75668e-06
7.75658e-06
7.75658e-06
7.75638e-06
7.75591e-06
7.75523e-06
7.75446e-06
7.75372e-06
7.75306e-06
7.75254e-06
7.75214e-06
7.75187e-06
7.75168e-06
7.75156e-06
7.75149e-06
7.75145e-06
7.75142e-06
7.75141e-06
7.7514e-06
7.7514e-06
7.7514e-06
7.7514e-06
7.7514e-06
7.7514e-06
7.7514e-06
7.7514e-06
7.7514e-06
7.7514e-06
7.7514e-06
7.7514e-06
7.7514e-06
7.7514e-06
7.7514e-06
7.7514e-06
7.7514e-06
7.7514e-06
7.7514e-06
7.7514e-06
7.7514e-06
7.7514e-06
7.7514e-06
7.7514e-06
7.7514e-06
7.7514e-06
7.7514e-06
7.7514e-06
7.7514e-06
7.99877e-06
7.9636e-06
7.93021e-06
7.89876e-06
7.86951e-06
7.84291e-06
7.81944e-06
7.79963e-06
7.78383e-06
7.77215e-06
7.7643e-06
7.75969e-06
7.75745e-06
7.75668e-06
7.75658e-06
7.75658e-06
7.75638e-06
7.75591e-06
7.75523e-06
7.75446e-06
7.75372e-06
7.75306e-06
7.75254e-06
7.75214e-06
7.75187e-06
7.75168e-06
7.75156e-06
7.75149e-06
7.75145e-06
7.75142e-06
7.75141e-06
7.7514e-06
7.7514e-06
7.7514e-06
7.7514e-06
7.7514e-06
7.7514e-06
7.7514e-06
7.7514e-06
7.7514e-06
7.7514e-06
7.7514e-06
7.7514e-06
7.7514e-06
7.7514e-06
7.7514e-06
7.7514e-06
7.7514e-06
7.7514e-06
7.7514e-06
7.7514e-06
7.7514e-06
7.7514e-06
7.7514e-06
7.7514e-06
7.7514e-06
7.7514e-06
7.7514e-06
7.7514e-06
7.7514e-06
7.99877e-06
7.9636e-06
7.93021e-06
7.89876e-06
7.86951e-06
7.84291e-06
7.81944e-06
7.79963e-06
7.78383e-06
7.77215e-06
7.7643e-06
7.75969e-06
7.75745e-06
7.75668e-06
7.75658e-06
7.75658e-06
7.75638e-06
7.75591e-06
7.75523e-06
7.75446e-06
7.75372e-06
7.75306e-06
7.75254e-06
7.75214e-06
7.75187e-06
7.75168e-06
7.75156e-06
7.75149e-06
7.75145e-06
7.75142e-06
7.75141e-06
7.7514e-06
7.7514e-06
7.7514e-06
7.7514e-06
7.7514e-06
7.7514e-06
7.7514e-06
7.7514e-06
7.7514e-06
7.7514e-06
7.7514e-06
7.7514e-06
7.7514e-06
7.7514e-06
7.7514e-06
7.7514e-06
7.7514e-06
7.7514e-06
7.7514e-06
7.7514e-06
7.7514e-06
7.7514e-06
7.7514e-06
7.7514e-06
7.7514e-06
7.7514e-06
7.7514e-06
7.7514e-06
7.7514e-06
7.99877e-06
7.9636e-06
7.93021e-06
7.89876e-06
7.86951e-06
7.84291e-06
7.81944e-06
7.79963e-06
7.78383e-06
7.77215e-06
7.7643e-06
7.75969e-06
7.75745e-06
7.75668e-06
7.75658e-06
7.75658e-06
7.75638e-06
7.75591e-06
7.75523e-06
7.75446e-06
7.75372e-06
7.75306e-06
7.75254e-06
7.75214e-06
7.75187e-06
7.75168e-06
7.75156e-06
7.75149e-06
7.75145e-06
7.75142e-06
7.75141e-06
7.7514e-06
7.7514e-06
7.7514e-06
7.7514e-06
7.7514e-06
7.7514e-06
7.7514e-06
7.7514e-06
7.7514e-06
7.7514e-06
7.7514e-06
7.7514e-06
7.7514e-06
7.7514e-06
7.7514e-06
7.7514e-06
7.7514e-06
7.7514e-06
7.7514e-06
7.7514e-06
7.7514e-06
7.7514e-06
7.7514e-06
7.7514e-06
7.7514e-06
7.7514e-06
7.7514e-06
7.7514e-06
7.7514e-06
7.99877e-06
7.9636e-06
7.93021e-06
7.89876e-06
7.86951e-06
7.84291e-06
7.81944e-06
7.79963e-06
7.78383e-06
7.77215e-06
7.7643e-06
7.75969e-06
7.75745e-06
7.75668e-06
7.75658e-06
7.75658e-06
7.75638e-06
7.75591e-06
7.75523e-06
7.75446e-06
7.75372e-06
7.75306e-06
7.75254e-06
7.75214e-06
7.75187e-06
7.75168e-06
7.75156e-06
7.75149e-06
7.75145e-06
7.75142e-06
7.75141e-06
7.7514e-06
7.7514e-06
7.7514e-06
7.7514e-06
7.7514e-06
7.7514e-06
7.7514e-06
7.7514e-06
7.7514e-06
7.7514e-06
7.7514e-06
7.7514e-06
7.7514e-06
7.7514e-06
7.7514e-06
7.7514e-06
7.7514e-06
7.7514e-06
7.7514e-06
7.7514e-06
7.7514e-06
7.7514e-06
7.7514e-06
7.7514e-06
7.7514e-06
7.7514e-06
7.7514e-06
7.7514e-06
7.7514e-06
7.99877e-06
7.9636e-06
7.93021e-06
7.89876e-06
7.86951e-06
7.84291e-06
7.81944e-06
7.79963e-06
7.78383e-06
7.77215e-06
7.7643e-06
7.75969e-06
7.75745e-06
7.75668e-06
7.75658e-06
7.75658e-06
7.75638e-06
7.75591e-06
7.75523e-06
7.75446e-06
7.75372e-06
7.75306e-06
7.75254e-06
7.75214e-06
7.75187e-06
7.75168e-06
7.75156e-06
7.75149e-06
7.75145e-06
7.75142e-06
7.75141e-06
7.7514e-06
7.7514e-06
7.7514e-06
7.7514e-06
7.7514e-06
7.7514e-06
7.7514e-06
7.7514e-06
7.7514e-06
7.7514e-06
7.7514e-06
7.7514e-06
7.7514e-06
7.7514e-06
7.7514e-06
7.7514e-06
7.7514e-06
7.7514e-06
7.7514e-06
7.7514e-06
7.7514e-06
7.7514e-06
7.7514e-06
7.7514e-06
7.7514e-06
7.7514e-06
7.7514e-06
7.7514e-06
7.7514e-06
7.99877e-06
7.9636e-06
7.93021e-06
7.89876e-06
7.86951e-06
7.84291e-06
7.81944e-06
7.79963e-06
7.78383e-06
7.77215e-06
7.7643e-06
7.75969e-06
7.75745e-06
7.75668e-06
7.75658e-06
7.75658e-06
7.75638e-06
7.75591e-06
7.75523e-06
7.75446e-06
7.75372e-06
7.75306e-06
7.75254e-06
7.75214e-06
7.75187e-06
7.75168e-06
7.75156e-06
7.75149e-06
7.75145e-06
7.75142e-06
7.75141e-06
7.7514e-06
7.7514e-06
7.7514e-06
7.7514e-06
7.7514e-06
7.7514e-06
7.7514e-06
7.7514e-06
7.7514e-06
7.7514e-06
7.7514e-06
7.7514e-06
7.7514e-06
7.7514e-06
7.7514e-06
7.7514e-06
7.7514e-06
7.7514e-06
7.7514e-06
7.7514e-06
7.7514e-06
7.7514e-06
7.7514e-06
7.7514e-06
7.7514e-06
7.7514e-06
7.7514e-06
7.7514e-06
7.7514e-06
7.99877e-06
7.9636e-06
7.93021e-06
7.89876e-06
7.86951e-06
7.84291e-06
7.81944e-06
7.79963e-06
7.78383e-06
7.77215e-06
7.7643e-06