/*--------------------------------*- C++ -*----------------------------------*\
  =========                 |
  \\      /  F ield         | OpenFOAM: The Open Source CFD Toolbox
   \\    /   O peration     | Website:  https://openfoam.org
    \\  /    A nd           | Version:  9
     \\/     M anipulation  |
\*---------------------------------------------------------------------------*/
FoamFile
{
    format      ascii;
    class       volScalarField;
    location    "0.002";
    object      epsilon;
}
// * * * * * * * * * * * * * * * * * * * * * * * * * * * * * * * * * * * * * //

dimensions      [0 2 -3 0 0 0 0];

internalField   nonuniform List<scalar> 
36400
(
254085
243654
235808
229747
224416
218533
213462
208371
203243
199237
194266
189427
184887
180228
175834
172223
169142
166316
163956
162495
162123
162500
162899
162577
161037
158047
153696
148615
143762
139892
137294
135985
136987
140319
144662
149406
152927
154762
156371
160205
163161
163510
162468
160697
158512
155544
153226
150555
147547
144775
142077
139306
137873
133545
129643
128725
130513
133762
135768
133228
251157
235749
222450
210983
201089
192511
185067
178566
172866
167990
163574
159692
156245
153068
150225
147825
145766
143941
142396
141277
140681
140526
140549
140421
139863
138694
136900
134724
132563
130759
129477
128734
128543
128827
129367
129998
130657
131277
131702
131894
132001
131826
131363
130740
130044
129274
128581
127880
127167
126472
125783
125108
124530
123949
123529
123379
123315
123319
123195
122977
250752
234373
219703
206581
194862
184419
175142
166940
159739
153482
148090
143508
139656
136440
133798
131671
129967
128597
127508
126685
126126
125801
125633
125516
125341
125023
124533
123914
123264
122681
122229
121936
121808
121833
121976
122196
122450
122686
122859
122942
122931
122818
122620
122371
122101
121830
121573
121329
121090
120851
120607
120362
120130
119927
119769
119665
119606
119584
119577
119567
250690
234130
219155
205606
193351
182284
172325
163412
155503
148563
142561
137458
133201
129722
126941
124768
123103
121850
120920
120246
119776
119467
119274
119156
119068
118975
118857
118711
118549
118391
118255
118156
118104
118103
118148
118227
118323
118417
118490
118527
118523
118479
118402
118306
118202
118100
118008
117925
117849
117775
117701
117625
117552
117487
117435
117399
117380
117376
117384
117408
250679
234086
219047
205397
193002
181757
171586
162437
154277
147082
140835
135509
131063
127438
124556
122325
120642
119407
118522
117903
117483
117206
117031
116922
116856
116810
116773
116735
116695
116653
116614
116584
116565
116562
116574
116599
116630
116662
116687
116700
116700
116686
116660
116628
116593
116559
116530
116505
116484
116465
116446
116426
116407
116390
116376
116366
116361
116361
116366
116385
250678
234078
219026
205353
192924
181633
171404
162186
153948
146672
140343
134940
130425
126742
123818
121558
119862
118626
117751
117150
116748
116487
116323
116223
116164
116128
116106
116091
116078
116065
116054
116045
116039
116037
116040
116047
116056
116065
116072
116077
116077
116073
116065
116056
116045
116036
116027
116021
116015
116011
116007
116002
115998
115994
115990
115988
115987
115987
115990
115998
250677
234077
219022
205344
192907
181605
171361
162125
153866
146567
140214
134787
130250
126550
123610
121340
119639
118401
117528
116930
116534
116279
116119
116023
115966
115933
115915
115904
115897
115892
115888
115885
115883
115883
115883
115885
115887
115889
115891
115892
115893
115892
115890
115887
115885
115882
115880
115878
115877
115876
115875
115874
115873
115872
115872
115871
115871
115871
115872
115875
250677
234076
219021
205343
192904
181599
171352
162111
153847
146542
140182
134749
130206
126500
123557
121284
119580
118342
117468
116872
116477
116223
116065
115970
115914
115882
115864
115854
115849
115846
115844
115843
115842
115842
115842
115842
115843
115843
115844
115844
115844
115844
115843
115843
115842
115842
115841
115841
115840
115840
115840
115840
115840
115839
115839
115839
115839
115839
115839
115840
250677
234076
219021
205342
192903
181598
171350
162108
153843
146536
140175
134740
130196
126489
123544
121270
119566
118327
117454
116858
116463
116209
116052
115957
115901
115869
115852
115842
115837
115835
115833
115833
115832
115832
115832
115832
115832
115832
115832
115832
115832
115832
115832
115832
115832
115832
115832
115832
115832
115832
115832
115832
115832
115831
115831
115831
115831
115831
115831
115832
250677
234076
219021
205342
192903
181598
171350
162108
153842
146535
140174
134738
130194
126486
123541
121267
119563
118324
117451
116854
116460
116206
116049
115954
115898
115866
115849
115840
115835
115832
115831
115830
115830
115830
115830
115830
115830
115830
115830
115830
115830
115830
115830
115830
115830
115830
115830
115830
115830
115830
115830
115830
115830
115830
115830
115830
115830
115830
115830
115830
250677
234076
219021
205342
192903
181598
171350
162108
153842
146535
140173
134738
130193
126486
123541
121267
119562
118323
117450
116854
116459
116206
116048
115953
115897
115866
115848
115839
115834
115832
115830
115830
115830
115829
115829
115829
115829
115829
115829
115829
115829
115829
115829
115829
115829
115829
115829
115829
115829
115829
115829
115829
115829
115829
115829
115829
115829
115829
115829
115829
250677
234076
219021
205342
192903
181598
171350
162107
153842
146535
140173
134738
130193
126486
123541
121267
119562
118323
117450
116854
116459
116205
116048
115953
115897
115866
115848
115839
115834
115832
115830
115830
115829
115829
115829
115829
115829
115829
115829
115829
115829
115829
115829
115829
115829
115829
115829
115829
115829
115829
115829
115829
115829
115829
115829
115829
115829
115829
115829
115829
250677
234076
219021
205342
192903
181598
171350
162107
153842
146535
140173
134738
130193
126486
123541
121267
119562
118323
117450
116853
116459
116205
116048
115953
115897
115866
115848
115839
115834
115832
115830
115830
115829
115829
115829
115829
115829
115829
115829
115829
115829
115829
115829
115829
115829
115829
115829
115829
115829
115829
115829
115829
115829
115829
115829
115829
115829
115829
115829
115829
250677
234076
219021
205342
192903
181598
171350
162107
153842
146535
140173
134738
130193
126486
123541
121267
119562
118323
117450
116853
116459
116205
116048
115953
115897
115866
115848
115839
115834
115832
115830
115830
115829
115829
115829
115829
115829
115829
115829
115829
115829
115829
115829
115829
115829
115829
115829
115829
115829
115829
115829
115829
115829
115829
115829
115829
115829
115829
115829
115829
250677
234076
219021
205342
192903
181598
171350
162107
153842
146535
140173
134738
130193
126486
123541
121267
119562
118323
117450
116853
116459
116205
116048
115953
115897
115866
115848
115839
115834
115832
115830
115830
115829
115829
115829
115829
115829
115829
115829
115829
115829
115829
115829
115829
115829
115829
115829
115829
115829
115829
115829
115829
115829
115829
115829
115829
115829
115829
115829
115829
250677
234076
219021
205342
192903
181598
171350
162107
153842
146535
140173
134738
130193
126486
123541
121267
119562
118323
117450
116853
116459
116205
116048
115953
115897
115866
115848
115839
115834
115832
115830
115830
115829
115829
115829
115829
115829
115829
115829
115829
115829
115829
115829
115829
115829
115829
115829
115829
115829
115829
115829
115829
115829
115829
115829
115829
115829
115829
115829
115829
250677
234076
219021
205342
192903
181598
171350
162107
153842
146535
140173
134738
130193
126486
123541
121267
119562
118323
117450
116853
116459
116205
116048
115953
115897
115866
115848
115839
115834
115832
115830
115830
115829
115829
115829
115829
115829
115829
115829
115829
115829
115829
115829
115829
115829
115829
115829
115829
115829
115829
115829
115829
115829
115829
115829
115829
115829
115829
115829
115829
250677
234076
219021
205342
192903
181598
171350
162107
153842
146535
140173
134738
130193
126486
123541
121267
119562
118323
117450
116853
116459
116205
116048
115953
115897
115866
115848
115839
115834
115832
115830
115830
115829
115829
115829
115829
115829
115829
115829
115829
115829
115829
115829
115829
115829
115829
115829
115829
115829
115829
115829
115829
115829
115829
115829
115829
115829
115829
115829
115829
250677
234076
219021
205342
192903
181598
171350
162107
153842
146535
140173
134738
130193
126486
123541
121267
119562
118323
117450
116853
116459
116205
116048
115953
115897
115866
115848
115839
115834
115832
115830
115830
115829
115829
115829
115829
115829
115829
115829
115829
115829
115829
115829
115829
115829
115829
115829
115829
115829
115829
115829
115829
115829
115829
115829
115829
115829
115829
115829
115829
250677
234076
219021
205342
192903
181598
171350
162107
153842
146535
140173
134738
130193
126486
123541
121267
119562
118323
117450
116853
116459
116205
116048
115953
115897
115866
115848
115839
115834
115832
115830
115830
115829
115829
115829
115829
115829
115829
115829
115829
115829
115829
115829
115829
115829
115829
115829
115829
115829
115829
115829
115829
115829
115829
115829
115829
115829
115829
115829
115829
250677
234076
219021
205342
192903
181598
171350
162107
153842
146535
140173
134738
130193
126486
123541
121267
119562
118323
117450
116853
116459
116205
116048
115953
115897
115866
115848
115839
115834
115832
115830
115830
115829
115829
115829
115829
115829
115829
115829
115829
115829
115829
115829
115829
115829
115829
115829
115829
115829
115829
115829
115829
115829
115829
115829
115829
115829
115829
115829
115829
250677
234076
219021
205342
192903
181598
171350
162107
153842
146535
140173
134738
130193
126486
123541
121267
119562
118323
117450
116853
116459
116205
116048
115953
115897
115866
115848
115839
115834
115832
115830
115830
115829
115829
115829
115829
115829
115829
115829
115829
115829
115829
115829
115829
115829
115829
115829
115829
115829
115829
115829
115829
115829
115829
115829
115829
115829
115829
115829
115829
250677
234076
219021
205342
192903
181598
171350
162107
153842
146535
140173
134738
130193
126486
123541
121267
119562
118323
117450
116853
116459
116205
116048
115953
115897
115866
115848
115839
115834
115832
115830
115830
115829
115829
115829
115829
115829
115829
115829
115829
115829
115829
115829
115829
115829
115829
115829
115829
115829
115829
115829
115829
115829
115829
115829
115829
115829
115829
115829
115829
250677
234076
219021
205342
192903
181598
171350
162107
153842
146535
140173
134738
130193
126486
123541
121267
119562
118323
117450
116853
116459
116205
116048
115953
115897
115866
115848
115839
115834
115832
115830
115830
115829
115829
115829
115829
115829
115829
115829
115829
115829
115829
115829
115829
115829
115829
115829
115829
115829
115829
115829
115829
115829
115829
115829
115829
115829
115829
115829
115829
250677
234076
219021
205342
192903
181598
171350
162107
153842
146535
140173
134738
130193
126486
123541
121267
119562
118323
117450
116853
116459
116205
116048
115953
115897
115866
115848
115839
115834
115832
115830
115830
115829
115829
115829
115829
115829
115829
115829
115829
115829
115829
115829
115829
115829
115829
115829
115829
115829
115829
115829
115829
115829
115829
115829
115829
115829
115829
115829
115829
250677
234076
219021
205342
192903
181598
171350
162107
153842
146535
140173
134738
130193
126486
123541
121267
119562
118323
117450
116853
116459
116205
116048
115953
115897
115866
115848
115839
115834
115832
115830
115830
115829
115829
115829
115829
115829
115829
115829
115829
115829
115829
115829
115829
115829
115829
115829
115829
115829
115829
115829
115829
115829
115829
115829
115829
115829
115829
115829
115829
250677
234076
219021
205342
192903
181598
171350
162107
153842
146535
140173
134738
130193
126486
123541
121267
119562
118323
117450
116853
116459
116205
116048
115953
115897
115866
115848
115839
115834
115832
115830
115830
115829
115829
115829
115829
115829
115829
115829
115829
115829
115829
115829
115829
115829
115829
115829
115829
115829
115829
115829
115829
115829
115829
115829
115829
115829
115829
115829
115829
250677
234076
219021
205342
192903
181598
171350
162107
153842
146535
140173
134738
130193
126486
123541
121267
119562
118323
117450
116853
116459
116205
116048
115953
115897
115866
115848
115839
115834
115832
115830
115830
115829
115829
115829
115829
115829
115829
115829
115829
115829
115829
115829
115829
115829
115829
115829
115829
115829
115829
115829
115829
115829
115829
115829
115829
115829
115829
115829
115829
250677
234076
219021
205342
192903
181598
171350
162107
153842
146535
140173
134738
130193
126486
123541
121267
119562
118323
117450
116853
116459
116205
116048
115953
115897
115866
115848
115839
115834
115832
115830
115830
115829
115829
115829
115829
115829
115829
115829
115829
115829
115829
115829
115829
115829
115829
115829
115829
115829
115829
115829
115829
115829
115829
115829
115829
115829
115829
115829
115829
250677
234076
219021
205342
192903
181598
171350
162107
153842
146535
140173
134738
130193
126486
123541
121267
119562
118323
117450
116853
116459
116205
116048
115953
115897
115866
115848
115839
115834
115832
115830
115830
115829
115829
115829
115829
115829
115829
115829
115829
115829
115829
115829
115829
115829
115829
115829
115829
115829
115829
115829
115829
115829
115829
115829
115829
115829
115829
115829
115829
250677
234076
219021
205342
192903
181598
171350
162107
153842
146535
140173
134738
130193
126486
123541
121267
119562
118323
117450
116853
116459
116205
116048
115953
115897
115866
115848
115839
115834
115832
115830
115830
115829
115829
115829
115829
115829
115829
115829
115829
115829
115829
115829
115829
115829
115829
115829
115829
115829
115829
115829
115829
115829
115829
115829
115829
115829
115829
115829
115829
250677
234076
219021
205342
192903
181598
171350
162107
153842
146535
140173
134738
130193
126486
123541
121267
119562
118323
117450
116853
116459
116205
116048
115953
115897
115866
115848
115839
115834
115832
115830
115830
115829
115829
115829
115829
115829
115829
115829
115829
115829
115829
115829
115829
115829
115829
115829
115829
115829
115829
115829
115829
115829
115829
115829
115829
115829
115829
115829
115829
250677
234076
219021
205342
192903
181598
171350
162107
153842
146535
140173
134738
130193
126486
123541
121267
119562
118323
117450
116853
116459
116205
116048
115953
115897
115866
115848
115839
115834
115832
115830
115830
115829
115829
115829
115829
115829
115829
115829
115829
115829
115829
115829
115829
115829
115829
115829
115829
115829
115829
115829
115829
115829
115829
115829
115829
115829
115829
115829
115829
250677
234076
219021
205342
192903
181598
171350
162107
153842
146535
140173
134738
130193
126486
123541
121267
119562
118323
117450
116853
116459
116205
116048
115953
115897
115866
115848
115839
115834
115832
115830
115830
115829
115829
115829
115829
115829
115829
115829
115829
115829
115829
115829
115829
115829
115829
115829
115829
115829
115829
115829
115829
115829
115829
115829
115829
115829
115829
115829
115829
250677
234076
219021
205342
192903
181598
171350
162107
153842
146535
140173
134738
130193
126486
123541
121267
119562
118323
117450
116853
116459
116205
116048
115953
115897
115866
115848
115839
115834
115832
115830
115830
115829
115829
115829
115829
115829
115829
115829
115829
115829
115829
115829
115829
115829
115829
115829
115829
115829
115829
115829
115829
115829
115829
115829
115829
115829
115829
115829
115829
250677
234076
219021
205342
192903
181598
171350
162107
153842
146535
140173
134738
130193
126486
123541
121267
119562
118323
117450
116853
116459
116205
116048
115953
115897
115866
115848
115839
115834
115832
115830
115830
115829
115829
115829
115829
115829
115829
115829
115829
115829
115829
115829
115829
115829
115829
115829
115829
115829
115829
115829
115829
115829
115829
115829
115829
115829
115829
115829
115829
250677
234076
219021
205342
192903
181598
171350
162107
153842
146535
140173
134738
130193
126486
123541
121267
119562
118323
117450
116853
116459
116205
116048
115953
115897
115866
115848
115839
115834
115832
115830
115830
115829
115829
115829
115829
115829
115829
115829
115829
115829
115829
115829
115829
115829
115829
115829
115829
115829
115829
115829
115829
115829
115829
115829
115829
115829
115829
115829
115829
250677
234076
219021
205342
192903
181598
171350
162107
153842
146535
140173
134738
130193
126486
123541
121267
119562
118323
117450
116853
116459
116205
116048
115953
115897
115866
115848
115839
115834
115832
115830
115830
115829
115829
115829
115829
115829
115829
115829
115829
115829
115829
115829
115829
115829
115829
115829
115829
115829
115829
115829
115829
115829
115829
115829
115829
115829
115829
115829
115829
250677
234076
219021
205342
192903
181598
171350
162107
153842
146535
140173
134738
130193
126486
123541
121267
119562
118323
117450
116853
116459
116205
116048
115953
115897
115866
115848
115839
115834
115832
115830
115830
115829
115829
115829
115829
115829
115829
115829
115829
115829
115829
115829
115829
115829
115829
115829
115829
115829
115829
115829
115829
115829
115829
115829
115829
115829
115829
115829
115829
250677
234076
219021
205342
192903
181598
171350
162107
153842
146535
140173
134738
130193
126486
123541
121267
119562
118323
117450
116853
116459
116205
116048
115953
115897
115866
115848
115839
115834
115832
115830
115830
115829
115829
115829
115829
115829
115829
115829
115829
115829
115829
115829
115829
115829
115829
115829
115829
115829
115829
115829
115829
115829
115829
115829
115829
115829
115829
115829
115829
250677
234076
219021
205342
192903
181598
171350
162107
153842
146535
140173
134738
130193
126486
123541
121267
119562
118323
117450
116853
116459
116205
116048
115953
115897
115866
115848
115839
115834
115832
115830
115830
115829
115829
115829
115829
115829
115829
115829
115829
115829
115829
115829
115829
115829
115829
115829
115829
115829
115829
115829
115829
115829
115829
115829
115829
115829
115829
115829
115829
250677
234076
219021
205342
192903
181598
171350
162107
153842
146535
140173
134738
130193
126486
123541
121267
119562
118323
117450
116853
116459
116205
116048
115953
115897
115866
115848
115839
115834
115832
115830
115830
115829
115829
115829
115829
115829
115829
115829
115829
115829
115829
115829
115829
115829
115829
115829
115829
115829
115829
115829
115829
115829
115829
115829
115829
115829
115829
115829
115829
250677
234076
219021
205342
192903
181598
171350
162107
153842
146535
140173
134738
130193
126486
123541
121267
119562
118323
117450
116853
116459
116205
116048
115953
115897
115866
115848
115839
115834
115832
115830
115830
115829
115829
115829
115829
115829
115829
115829
115829
115829
115829
115829
115829
115829
115829
115829
115829
115829
115829
115829
115829
115829
115829
115829
115829
115829
115829
115829
115829
250677
234076
219021
205342
192903
181598
171350
162107
153842
146535
140173
134738
130193
126486
123541
121267
119562
118323
117450
116853
116459
116205
116048
115953
115897
115866
115848
115839
115834
115832
115830
115830
115829
115829
115829
115829
115829
115829
115829
115829
115829
115829
115829
115829
115829
115829
115829
115829
115829
115829
115829
115829
115829
115829
115829
115829
115829
115829
115829
115829
250677
234076
219021
205342
192903
181598
171350
162107
153842
146535
140173
134738
130193
126486
123541
121267
119562
118323
117450
116853
116459
116205
116048
115953
115897
115866
115848
115839
115834
115832
115830
115830
115829
115829
115829
115829
115829
115829
115829
115829
115829
115829
115829
115829
115829
115829
115829
115829
115829
115829
115829
115829
115829
115829
115829
115829
115829
115829
115829
115829
250677
234076
219021
205342
192903
181598
171350
162107
153842
146535
140173
134738
130193
126486
123541
121267
119562
118323
117450
116853
116459
116205
116048
115953
115897
115866
115848
115839
115834
115832
115830
115830
115829
115829
115829
115829
115829
115829
115829
115829
115829
115829
115829
115829
115829
115829
115829
115829
115829
115829
115829
115829
115829
115829
115829
115829
115829
115829
115829
115829
250677
234076
219021
205342
192903
181598
171350
162107
153842
146535
140173
134738
130193
126486
123541
121267
119562
118323
117450
116853
116459
116205
116048
115953
115897
115866
115848
115839
115834
115832
115830
115830
115829
115829
115829
115829
115829
115829
115829
115829
115829
115829
115829
115829
115829
115829
115829
115829
115829
115829
115829
115829
115829
115829
115829
115829
115829
115829
115829
115829
250677
234076
219021
205342
192903
181598
171350
162107
153842
146535
140173
134738
130193
126486
123541
121267
119562
118323
117450
116853
116459
116205
116048
115953
115897
115866
115848
115839
115834
115832
115830
115830
115829
115829
115829
115829
115829
115829
115829
115829
115829
115829
115829
115829
115829
115829
115829
115829
115829
115829
115829
115829
115829
115829
115829
115829
115829
115829
115829
115829
250677
234076
219021
205342
192903
181598
171350
162107
153842
146535
140173
134738
130193
126486
123541
121267
119562
118323
117450
116853
116459
116205
116048
115953
115897
115866
115848
115839
115834
115832
115830
115830
115829
115829
115829
115829
115829
115829
115829
115829
115829
115829
115829
115829
115829
115829
115829
115829
115829
115829
115829
115829
115829
115829
115829
115829
115829
115829
115829
115829
250677
234076
219021
205342
192903
181598
171350
162107
153842
146535
140173
134738
130193
126486
123541
121267
119562
118323
117450
116853
116459
116205
116048
115953
115897
115866
115848
115839
115834
115832
115830
115830
115829
115829
115829
115829
115829
115829
115829
115829
115829
115829
115829
115829
115829
115829
115829
115829
115829
115829
115829
115829
115829
115829
115829
115829
115829
115829
115829
115829
250677
234076
219021
205342
192903
181598
171350
162107
153842
146535
140173
134738
130193
126486
123541
121267
119562
118323
117450
116853
116459
116205
116048
115953
115897
115866
115848
115839
115834
115832
115830
115830
115829
115829
115829
115829
115829
115829
115829
115829
115829
115829
115829
115829
115829
115829
115829
115829
115829
115829
115829
115829
115829
115829
115829
115829
115829
115829
115829
115829
250677
234076
219021
205342
192903
181598
171350
162107
153842
146535
140173
134738
130193
126486
123541
121267
119562
118323
117450
116853
116459
116205
116048
115953
115897
115866
115848
115839
115834
115832
115830
115830
115829
115829
115829
115829
115829
115829
115829
115829
115829
115829
115829
115829
115829
115829
115829
115829
115829
115829
115829
115829
115829
115829
115829
115829
115829
115829
115829
115829
250677
234076
219021
205342
192903
181598
171350
162107
153842
146535
140173
134738
130193
126486
123541
121267
119562
118323
117450
116853
116459
116205
116048
115953
115897
115866
115848
115839
115834
115832
115830
115830
115829
115829
115829
115829
115829
115829
115829
115829
115829
115829
115829
115829
115829
115829
115829
115829
115829
115829
115829
115829
115829
115829
115829
115829
115829
115829
115829
115829
250677
234076
219021
205342
192903
181598
171350
162107
153842
146535
140173
134738
130193
126486
123541
121267
119562
118323
117450
116853
116459
116205
116048
115953
115897
115866
115848
115839
115834
115832
115830
115830
115829
115829
115829
115829
115829
115829
115829
115829
115829
115829
115829
115829
115829
115829
115829
115829
115829
115829
115829
115829
115829
115829
115829
115829
115829
115829
115829
115829
250677
234076
219021
205342
192903
181598
171350
162107
153842
146535
140173
134738
130193
126486
123541
121267
119562
118323
117450
116853
116459
116205
116048
115953
115897
115866
115848
115839
115834
115832
115830
115830
115829
115829
115829
115829
115829
115829
115829
115829
115829
115829
115829
115829
115829
115829
115829
115829
115829
115829
115829
115829
115829
115829
115829
115829
115829
115829
115829
115829
250677
234076
219021
205342
192903
181598
171350
162107
153842
146535
140173
134738
130193
126486
123541
121267
119562
118323
117450
116853
116459
116205
116048
115953
115897
115866
115848
115839
115834
115832
115830
115830
115829
115829
115829
115829
115829
115829
115829
115829
115829
115829
115829
115829
115829
115829
115829
115829
115829
115829
115829
115829
115829
115829
115829
115829
115829
115829
115829
115829
250677
234076
219021
205342
192903
181598
171350
162107
153842
146535
140173
134738
130193
126486
123541
121267
119562
118323
117450
116853
116459
116205
116048
115953
115897
115866
115848
115839
115834
115832
115830
115830
115829
115829
115829
115829
115829
115829
115829
115829
115829
115829
115829
115829
115829
115829
115829
115829
115829
115829
115829
115829
115829
115829
115829
115829
115829
115829
115829
115829
250677
234076
219021
205342
192903
181598
171350
162107
153842
146535
140173
134738
130193
126486
123541
121267
119562
118323
117450
116853
116459
116205
116048
115953
115897
115866
115848
115839
115834
115832
115830
115830
115829
115829
115829
115829
115829
115829
115829
115829
115829
115829
115829
115829
115829
115829
115829
115829
115829
115829
115829
115829
115829
115829
115829
115829
115829
115829
115829
115829
250677
234076
219021
205342
192903
181598
171350
162107
153842
146535
140173
134738
130193
126486
123541
121267
119562
118323
117450
116854
116459
116205
116048
115953
115897
115866
115848
115839
115834
115832
115830
115830
115829
115829
115829
115829
115829
115829
115829
115829
115829
115829
115829
115829
115829
115829
115829
115829
115829
115829
115829
115829
115829
115829
115829
115829
115829
115829
115829
115829
250677
234076
219021
205342
192903
181598
171350
162108
153842
146535
140173
134738
130193
126486
123541
121267
119562
118323
117450
116854
116459
116206
116048
115953
115897
115866
115848
115839
115834
115832
115830
115830
115830
115829
115829
115829
115829
115829
115829
115829
115829
115829
115829
115829
115829
115829
115829
115829
115829
115829
115829
115829
115829
115829
115829
115829
115829
115829
115829
115829
250677
234076
219021
205342
192903
181598
171350
162108
153842
146535
140174
134738
130194
126486
123541
121267
119563
118324
117451
116854
116460
116206
116049
115954
115898
115866
115849
115840
115835
115832
115831
115830
115830
115830
115830
115830
115830
115830
115830
115830
115830
115830
115830
115830
115830
115830
115830
115830
115830
115830
115830
115830
115830
115830
115830
115830
115830
115830
115830
115830
250677
234076
219021
205342
192903
181598
171350
162108
153843
146536
140175
134740
130196
126489
123544
121270
119566
118327
117454
116857
116463
116209
116052
115956
115901
115869
115852
115842
115837
115835
115833
115833
115832
115832
115832
115832
115832
115833
115833
115833
115833
115833
115833
115833
115833
115833
115832
115832
115832
115832
115832
115832
115832
115832
115832
115832
115832
115832
115832
115833
250677
234076
219021
205343
192904
181599
171352
162111
153847
146542
140183
134749
130206
126501
123557
121284
119580
118341
117468
116871
116476
116222
116064
115968
115913
115881
115863
115854
115848
115846
115844
115843
115842
115842
115843
115843
115844
115845
115845
115846
115847
115847
115847
115846
115845
115845
115844
115843
115842
115841
115841
115841
115841
115841
115842
115842
115842
115842
115843
115844
250677
234077
219022
205344
192907
181605
171362
162125
153866
146567
140214
134787
130251
126550
123610
121340
119638
118399
117524
116925
116528
116272
116112
116015
115959
115927
115909
115898
115892
115888
115885
115883
115882
115882
115884
115887
115890
115894
115898
115900
115902
115902
115902
115900
115897
115893
115890
115886
115883
115880
115879
115879
115879
115880
115881
115883
115884
115885
115887
115892
250678
234078
219026
205353
192924
181633
171404
162186
153948
146673
140344
134940
130425
126743
123817
121555
119854
118612
117730
117122
116713
116448
116282
116182
116124
116091
116072
116059
116048
116038
116030
116024
116023
116027
116036
116049
116064
116080
116093
116104
116110
116111
116107
116099
116088
116075
116061
116047
116036
116027
116022
116020
116021
116024
116029
116033
116038
116043
116048
116062
250679
234086
219048
205398
193002
181758
171587
162438
154278
147083
140836
135511
131064
127435
124544
122298
120593
119329
118412
117762
117314
117018
116833
116726
116670
116639
116616
116590
116559
116527
116499
116483
116484
116504
116543
116596
116654
116711
116760
116794
116811
116810
116793
116763
116723
116678
116631
116587
116548
116519
116499
116490
116490
116497
116508
116521
116535
116548
116563
116592
250689
234130
219156
205608
193354
182288
172329
163416
155505
148565
142564
137461
133199
129698
126871
124625
122863
121493
120437
119640
119065
118682
118461
118357
118321
118303
118263
118187
118080
117967
117877
117834
117851
117932
118069
118246
118437
118614
118755
118845
118878
118857
118789
118686
118562
118427
118290
118160
118045
117951
117881
117839
117823
117829
117848
117873
117899
117923
117949
117989
250744
234367
219703
206586
194871
184430
175155
166954
159745
153466
148088
143535
139681
136389
133578
131194
129171
127429
125922
124670
123731
123136
122862
122826
122879
122883
122747
122468
122100
121742
121484
121387
121465
121709
122087
122549
123028
123453
123766
123931
123943
123817
123588
123297
122982
122665
122352
122055
121767
121505
121277
121105
121021
121012
121037
121056
121059
121038
121012
120975
251016
235637
222405
210978
201104
192571
185197
178802
172970
167750
163481
160010
156873
153732
150678
147880
145343
142906
140446
138111
136275
135176
134796
135011
135242
135093
134300
133149
131812
130699
129943
129722
129890
130358
130963
131623
132298
132898
133304
133418
133228
132791
132289
131692
131107
130682
130357
130166
129704
129150
128459
127813
127656
127903
128188
128156
127845
127291
126712
126090
252005
242071
235435
229652
224948
221113
217942
214924
205678
198129
193600
191333
189160
186092
183046
180820
179506
178367
176413
173694
171793
172436
174403
178168
178873
177932
174194
169781
164390
160181
155987
154272
152404
154334
154711
151975
148705
145404
144031
143740
143111
142311
143990
144888
144201
141496
142307
145140
144850