/*--------------------------------*- C++ -*----------------------------------*\
  =========                 |
  \\      /  F ield         | OpenFOAM: The Open Source CFD Toolbox
   \\    /   O peration     | Website:  https://openfoam.org
    \\  /    A nd           | Version:  9
     \\/     M anipulation  |
\*---------------------------------------------------------------------------*/
FoamFile
{
    format      ascii;
    class       volScalarField;
    location    "0.002";
    object      p;
}
// * * * * * * * * * * * * * * * * * * * * * * * * * * * * * * * * * * * * * //

dimensions      [1 -1 -2 0 0 0 0];

internalField   nonuniform List<scalar> 
36400
(
2
2
2
2
2
2
2
2
2
2
2
2
2
2
2
2
2
2
2
2
2
2
2
2
2
2
2
2
2
2
2
2
2
2
2
2
2
2
2
2
2
2
2
2
2
2
2
2
2
2
2
2
2
2
2
2
2
2
2
2
2
2
2
2
2
2
2
2
2
2
2
2
2
2
2
2
2
2
2
2
2
2
2
2
2
2
2
2
2
2
2
2
2
2
2
2
2
2
2
2
2
2
2
2
2
2
2
2
2
2
2
2
2
2
2
2
2
2
2
2
2
2
2
2
2
2
2
2
2
2
2
2
2
2
2
2
2
2
2
2
2
2
2
2
2
2
2
2
2
2
2
2
2
2
2
2
2
2
2
2
2
2
2
2
2
2
2
2
2
2
2
2
2
2
2
2
2
2
2
2
2
2
2
2
2
2
2
2
2
2
2
2
2
2
2
2
2
2
2
2
2
2
2
2
2
2
2
2
2
2
2
2
2
2
2
2
2
2
2
2
2
2
2
2
2
2
2
2
2
2
2
2
2
2
2
2
2
2
2
2
2
2
2
2
2
2
2
2
2
2
2
2
2
2
2
2
2
2
2
2
2
2
2
2
2
2
2
2
2
2
2
2
2
2
2
2
2
2
2
2
2
2
2
2
2
2
2
2
2
2
2
2
2
2
2
2
2
2
2
2
2
2
2
2
2
2
2
2
2
2
2
2
2
2
2
2
2
2
2
2
2
2
2
2
2
2
2
2
2
2
2
2
2
2
2
2
2
2
2
2
2
2
2
2
2
2
2
2
2
2
2
2
2
2
2
2
2
2
2
2
2
2
2
2
2
2
2
2
2
2
2
2
2
2
2
2
2
2
2
2
2
2
2
2
2
2
2
2
2
2
2
2
2
2
2
2
2
2
2
2
2
2
2
2
2
2
2
2
2
2
2
2
2
2
2
2
2
2
2
2
2
2
2
2
2
2
2
2
2
2
2
2
2
2
2
2
2
2
2
2
2
2
2
2
2
2
2
2
2
2
2
2
2
2
2
2
2
2
2
2
2
2
2
2
2
2
2
2
2
2
2
2
2
2
2
2
2
2
2
2
2
2
2
2
2
2
2
2
2
2
2
2
2
2
2
2
2
2
2
2
2
2
2
2
2
2
2
2
2
2
2
2
2
2
2
2
2
2
2
2
2
2
2
2
2
2
2
2
2
2
2
2
2
2
2
2
2
2
2
2
2
2
2
2
2
2
2
2
2
2
2
2
2
2
2
2
2
2
2
2
2
2
2
2
2
2
2
2
2
2
2
2
2
2
2
2
2
2
2
2
2
2
2
2
2
2
2
2
2
2
2
2
2
2
2
2
2
2
2
2
2
2
2
2
2
2
2
2
2
2
2
2
2
2
2
2
2
2
2
2
2
2
2
2
2
2
2
2
2
2
2
2
2
2
2
2
2
2
2
2
2
2
2
2
2
2
2
2
2
2
2
2
2
2
2
2
2
2
2
2
2
2
2
2
2
2
2
2
2
2
2
2
2
2
2
2
2
2
2
2
2
2
2
2
2
2
2
2
2
2
2
2
2
2
2
2
2
2
2
2
2
2
2
2
2
2
2
2
2
2
2
2
2
2
2
2
2
2
2
2
2
2
2
2
2
2
2
2
2
2
2
2
2
2
2
2
2
2
2
2
2
2
2
2
2
2
2
2
2
2
2
2
2
2
2
2
2
2
2
2
2
2
2
2
2
2
2
2
2
2
2
2
2
2
2
2
2
2
2
2
2
2
2
2
2
2
2
2
2
2
2
2
2
2
2
2
2
2
2
2
2
2
2
2
2
2
2
2
2
2
2
2
2
2
2
2
2
2
2
2
2
2
2
2
2
2
2
2
2
2
2
2
2
2
2
2
2
2
2
2
2
2
2
2
2
2
2
2
2
2
2
2
2
2
2
2
2
2
2
2
2
2
2
2
2
2
2
2
2
2
2
2
2
2
2
2
2
2
2
2
2
2
2
2
2
2
2
2
2
2
2
2
2
2
2
2
2
2
2
2
2
2
2
2
2
2
2
2
2
2
2
2
2
2
2
2
2
2
2
2
2
2
2
2
2
2
2
2
2
2
2
2
2
2
2
2
2
2
2
2
2
2
2
2
2
2
2
2
2
2
2
2
2
2
2
2
2
2
2
2
2
2
2
2
2
2
2
2
2
2
2
2
2
2
2
2
2
2
2
2
2
2
2
2
2
2
2
2
2
2
2
2
2
2
2
2
2
2
2
2
2
2
2
2
2
2
2
2
2
2
2
2
2
2
2
2
2
2
2
2
2
2
2
2
2
2
2
2
2
2
2
2
2
2
2
2
2
2
2
2
2
2
2
2
2
2
2
2
2
2
2
2
2
2
2
2
2
2
2
2
2
2
2
2
2
2
2
2
2
2
2
2
2
2
2
2
2
2
2
2
2
2
2
2
2
2
2
2
2
2
2
2
2
2
2
2
2
2
2
2
2
2
2
2
2
2
2
2
2
2
2
2
2
2
2
2
2
2
2
2
2
2
2
2
2
2
2
2
2
2
2
2
2
2
2
2
2
2
2
2
2
2
2
2
2
2
2
2
2
2
2
2
2
2
2
2
2
2
2
2
2
2
2
2
2
2
2
2
2
2
2
2
2
2
2
2
2
2
2
2
2
2
2
2
2
2
2
2
2
2
2
2
2
2
2
2
2
2
2
2
2
2
2
2
2
2
2
2
2
2
2
2
2
2
2
2
2
2
2
2
2
2
2
2
2
2
2
2
2
2
2
2
2
2
2
2
2
2
2
2
2
2
2
2
2
2
2
2
2
2
2
2
2
2
2
2
2
2
2
2
2
2
2
2
2
2
2
2
2
2
2
2
2
2
2
2
2
2
2
2
2
2
2
2
2
2
2
2
2
2
2
2
2
2
2
2
2
2
2
2
2
2
2
2
2
2
2
2
2
2
2
2
2
2
2
2
2
2
2
2
2
2
2
2
2
2
2
2
2
2
2
2
2
2
2
2
2
2
2
2
2
2
2
2
2
2
2
2
2
2
2
2
2
2
2
2
2
2
2
2
2
2
2
2
2
2
2
2
2
2
2
2
2
2
2
2
2
2
2
2
2
2
2
2
2
2
2
2
2
2
2
2
2
2
2
2
2
2
2
2
2
2
2
2
2
2
2
2
2
2
2
2
2
2
2
2
2
2
2
2
2
2
2
2
2
2
2
2
2
2
2
2
2
2
2
2
2
2
2
2
2
2
2
2
2
2
2
2
2
2
2
2
2
2
2
2
2
2
2
2
2
2
2
2
2
2
2
2
2
2
2
2
2
2
2
2
2
2
2
2
2
2
2
2
2
2
2
2
2
2
2
2
2
2
2
2
2
2
2
2
2
2
2
2
2
2
2
2
2
2
2
2
2
2
2
2
2
2
2
2
2
2
2
2
2
2
2
2
2
2
2
2
2
2
2
2
2
2
2
2
2
2
2
2
2
2
2
2
2
2
2
2
2
2
2
2
2
2
2
2
2
2
2
2
2
2
2
2
2
2
2
2
2
2
2
2
2
2
2
2
2
2
2
2
2
2
2
2
2
2
2
2
2
2
2
2
2
2
2
2
2
2
2
2
2
2
2
2
2
2
2
2
2
2
2
2
2
2
2
2
2
2
2
2
2
2
2
2
2
2
2
2
2
2
2
2
2
2
2
2
2
2
2
2
2
2
2
2
2
2
2
2
2
2
2
2
2
2
2
2
2
2
2
2
2
2
2
2
2
2
2
2
2
2
2
2
2
2
2
2
2
2
2
2
2
2
2
2
2
2
2
2
2
2
2
2
2
2
2
2
2
2
2
2
2
2
2
2
2
2
2
2
2
2
2
2
2
2
2
2
2
2
2
2
2
2
2
2
2
2
2
2
2
2
2
2
2
2
2
2
2
2
2
2
2
2
2
2
2
2
2
2
2
2
2
2
2
2
2
2
2
2
2
2
2
2
2
2
2
2
2
2
2
2
2
2
2
2
2
2
2
2
2
2
2
2
2
2
2
2
2
2
2
2
2
2
2
2
2
2
2
2
2
2
2
2
2
2
2
2
2
2
2
2
2
2
2
2
2
2
2
2
2
2
2
2
2
2
2
2
2
2
2
2
2
2
2
2
2
2
2
2
2
2
2
2
2
2
2
2
2
2
2
2
2
2
2
2
2
2
2
2
2
2
2
2
2
2
2
2
2
2
2
2
2
2
2
2
2
2
2
2
2
2
2
2
2
2
2
2
2
2
2
2
2
2
2
2
2
2
2
2
2
2
2
2
2
2
2
2
2
2
2
2
2
2
2
2
2
2
2
2
2
2
2
2
2
2
2
2
2
2
2
2
2
2
2
2
2
2
2
2
2
2
2
2
2
2
2
2
2
2
2
2
2
2
2
2
2
2
2
2
2
2
2
2
2
2
2
2
2
2
2
2
2
2
2
2
2
2
2
2
2
2
2
2
2
2
2
2
2
2
2
2
2
2
2
2
2
2
2
2
2
2
2
2
2
2
2
2
2
2
2
2
2
2
2
2
2
2
2
2
2
2
2
2
2
2
2
2
2
2
2
2
2
2
2
2
2
2
2
2
2
2
2
2
2
2
2
2
2
2
2
2
2
2
2
2
2
2
2
2
2
2
2
2
2
2
2
2
2
2
2
2
2
2
2
2
2
2
2
2
2
2
2
2
2
2
2
2
2
2
2
2
2
2
2
2
2
2
2
2
2
2
2
2
2
2
2
2
2
2
2
2
2
2
2
2
2
2
2
2
2
2
2
2
2
2
2
2
2
2
2
2
2
2
2
2
2
2
2
2
2
2
2
2
2
2
2
2
2
2
2
2
2
2
2
2
2
2
2
2
2
2
2
2
2
2
2
2
2
2
2
2
2
2
2
2
2
2
2
2
2
2
2
2
2
2
2
2
2
2
2
2
2
2
2
2
2
2
2
2
2
2
2
2
2
2
2
2
2
2
2
2
2
2
2
2
2
2
2
2
2
2
2
2
2
2
2
2
2
2
2
2
2
2
2
2
2
2
2
2
2
2
2
2
2
2
2
2
2
2
2
2
2
2
2
2
2
2
2
2
2
2
2
2
2
2
2
2
2
2
2
2
2
2
2
2
2
2
2
2
2
2
2
2
2
2
2
2
2
2
2
2
2
2
2
2
2
2
2
2
2
2
2
2
2
2
2
2
2
2
2
2
2
2
2
2
2
2
2
2
2
2
2
2
2
2
2
2
2
2
2
2
2
2
2
2
2
2
2
2
2
2
2
2
2
2
2
2
2
2
2
2
2
2
2
2
2
2
2
2
2
2
2
2
2
2
2
2
2
2
2
2
2
2
2
2
2
2
2
2
2
2
2
2
2
2
2
2
2
2
2
2
2
2
2
2
2
2
2
2
2
2
2
2
2
2
2
2
2
2
2
2
2
2
2
2
2
2
2
2
2
2
2
2
2
2
2
2
2
2
2
2
2
2
2
2
2
2
2
2
2
2
2
2
2
2
2
2
2
2
2
2
2
2
2
2
2
2
2
2
2
2
2
2
2
2
2
2
2
2
2
2
2
2
2
2
2
2
2
2
2
2
2
2
2
2
2
2
2
2
2
2
2
2
2
2
2
2
2
2
2
2
2
2
2
2
2
2
2
2
2
2
2
2
2
2
2
2
2
2
2
2
2
2
2
2
2
2
2
2
2
2
2
2
2
2
2
2
2
2
2
2
2
2
2
2
2
2
2
2
2
2
2
2
2
2
2
2
2
2
2
2
2
2
2
2
2
2
2
2
2
2
2
2
2
2
2
2
2
2
2
2
2
2
2
2
2
2
2
2
2
2
2
2
2
2
2
2
2
2
2
2
2
2
2
2
2
2
2
2
2
2
2
2
2
2
2
2
2
2
2
2
2
2
2
2
2
2
2
2
2
2
2
2
2
2
2
2
2
2
2
2
2
2
2
2
2
2
2
2
2
2
2
2
2
2
2
2
2
2
2
2
2
2
2
2
2
2
2
2
2
2
2
2
2
2
2
2
2
2
2
2
2
2
2
2
2
2
2
2
2
2
2
2
2
2
2
2
2
2
2
2
2
2
2
2
2
2
2
2
2
2
2
2
2
2
2
2
2
2
2
2
2
2
2
2
2
2
2
2
2
2
2
2
2
2
2
2
2
2
2
2
2
2
2
2
2
2
2
2
2
2
2
2
2
2
2
2
2
2
2
2
2
2
2
2
2
2
2
2
2
2
2
2
2
2
2
2
2
2
2
2
2
2
2
2
2
2
2
2
2
2
2
2
2
2
2
2
2
2
2
2
2
2
2
2
2
2
2
2
2
2
2
2
2
2
2
2
2
2
2
2
2
2
2
2
2
2
2
2
2
2
2
2
2
2
2
2
2
2
2
2
2
2
2
2
2
2
2
2
2
2
2
2
2
2
2
2
2
2
2
2
2
2
2
2
2
2
2
2
2
2
2
2
2
2
2
2
2
2
2
2
2
2
2
2
2
2
2
2
2
2
2
2
2
2
2
2
2
2
2
2
2
2
2
2
2
2
2
2
2
2
2
2
2
2
2
2
2
2
2
2
2
2
2
2
2
2
2
2
2
2
2
2
2
2
2
2
2
2
2
2
2
2
2
2
2
2
2
2
2
2
2
2
2
2
2
2
2
2
2
2
2
2
2
2
2
2
2
2
2
2
2
2
2
2
2
2
2
2
2
2
2
2
2
2
2
2
2
2
2
2
2
2
2
2
2
2
2
2
2
2
2
2
2
2
2
2
2
2
2
2
2
2
2
2
2
2
2
2
2
2
2
2
2
2
2
2
2
2
2
2
2
2
2
2
2
2
2
2
2
2
2
2
2
2
2
2
2
2
2
2
2
2
2
2
2
2
2
2
2
2
2
2
2
2
2
2
2
2
2
2
2
2
2
2
2
2
2
2
2
2
2
2
2
2
2
2
2
2
2
2
2
2
2
2
2
2
2
2
2
2
2
2
2
2
2
2
2
2
2
2
2
2
2
2
2
2
2
2
2
2
2
2
2
2
2
2
2
2
2
2
2
2
2
2
2
2
2
2
2
2
2
2
2
2
2
2
2
2
2
2
2
2
2
2
2
2
2
2
2
2
2
2
2
2
2
2
2
2
2
2
2
2
2
2
2
2
2
2
2
2
2
2
2
2
2
2
2
2
2
2
2
2
2
2
2
2
2
2
2
2
2
2
2
2
2
2
2
2
2
2
2
2
2
2
2
2
2
2
2
2
2
2
2
2
2
2
2
2
2
2
2
2
2
2
2
2
2
2
2
2
2
2
2
2
2
2
2
2
2
2
2
2
2
2
2
2
2
2
2
2
2
2
2
2
2
2
2
2
2
2
2
2
2
2
2
2
2
2
2
2
2
2
2
2
2
2
2
2
2
2
2
2
2
2
2
2
2
2
2
2
2
2
2
2
2
2
2
2
2
2
2
2
2
2
2
2
2
2
2
2
2
2
2
2
2
2
2
2
2
2
2
2
2
2
2
2
2
2
2
2
2
2
2
2
2
2
2
2
2
2
2
2
2
2
2
2
2
2
2
2
2
2
2
2
2
2
2
2
2
2
2
2
2
2
2
2
2
2
2
2
2
2
2
2
2
2
2
2
2
2
2
2
2
2
2
2
2
2
2
2
2
2
2
2
2
2
2
2
2
2
2
2
2
2
2
2
2
2
2
2
2
2
2
2
2
2
2
2
2
2
2
2
2
2
2
2
2
2
2
2
2
2
2
2
2
2
2
2
2
2
2
2
2
2
2
2
2
2
2
2
2
2
2
2
2
2
2
2
2
2
2
2
2
2
2
2
2
2
2
2
2
2
2
2
2
2
2
2
2
2
2
2
2
2
2
2
2
2
2
2
2
2
2
2
2
2
2
2
2
2
2
2
2
2
2
2
2
2
2
2
2
2
2
2
2
2
2
2
2
2
2
2
2
2
2
2
2
2
2
2
2
2
2
2
2
2
2
2
2
2
2
2
2
2
2
2
2
2
2
2
2
2
2
2
2
2
2
2
2
2
2
2
2
2
2
2
2
2
2
2
2
2
2
2
2
2
2
2
2
2
2
2
2
2
2
2
2
2
2
2
2
2
2
2
2
2
2
2
2
2
2
2
2
2
2
2
2
2
2
2
2
2
2
2
2
2
2
2
2
2
2
2
2
2
2
2
2
2
2
2
2
2
2
2
2
2
2
2
2
2
2
2
2
2
2
2
2
2
2
2
2
2
2
2
2
2
2
2
2
2
2
2
2
2
2
2
2
2
2
2
2
2
2
2
2
2
2
2
2
2
2
2
2
2
2
2
2
2
2
2
2
2
2
2
2
2
2
2
2
2
2
2
2
2
2
2
2
2
2
2
2
2
2
2
2
2
2
2
2
2
2
2
2
2
2
2
2
2
2
2
2
2
2
2
2
2
2
2
2
2
2
2
2
2
2
2
2
2
2
2
2
2
2
2
2
2
2
2
2
2
2
2
2
2
2
2
2
2
2
2
2
2
2
2
2
2
2
2
2
2
2
2
2
2
2
2
2
2
2
2
2
2
2
2
2
2
2
2
2
2
2
2
2
2
2
2
2
2
2
2
2
2
2
2
2
2
2
2
2
2
2
2
2
2
2
2
2
2
2
2
2
2
2
2
2
2
2
2
2
2
2
2
2
2
2
2
2
2
2
2
2
2
2
2
2
2
2
2
2
2
2
2
2
2
2
2
2
2
2
2
2
2
2
2
2
2
2
2
2
2
2
2
2
2
2
2
2
2
2
2
2
2
2
2
2
2
2
2
2
2
2
2
2
2
2
2
2
2
2
2
2
2
2
2
2
2
2
2
2
2
2
2
2
2
2
2
2
2
2
2
2
2
2
2
2
2
2
2
2
2
2
2
2
2
2
2
2
2
2
2
2
2
2
2
2
2
2
2
2
2
2
2
2
2
2
2
2
2
2
2
2
2
2
2
2
2
2
2
2
2
2
2
2
2
2
2
2
2
2
2
2
2
2
2
2
2
2
2
2
2
2
2
2
2
2
2
2
2
2
2
2
2
2
2
2
2
2
2
2
2
2
2
2
2
2
2
2
2
2
2
2
2
2
2
2
2
2
2
2
2
2
2
2
2
2
2
2
2
2
2
2
2
2
2
2
2
2
2
2
2
2
2
2
2
2
2
2
2
2
2
2
2
2
2
2
2
2
2
2
2
2
2
2
2
2
2
2
2
2
2
2
2
2
2
2
2
2
2
2
2
2
2
2
2
2
2
2
2
2
2
2
2
2
2
2
2
2
2
2
2
2
2
2
2
2
2
2
2
2
2
2
2
2
2
2
2
2
2
2
2
2
2
2
2
2
2
2
2
2
2
2
2
2
2
2
2
2
2
2
2
2
2
2
2
2
2
2
2
2
2
2
2
2
2
2
2
2
2
2
2
2
2
2
2
2
2
2
2
2
2
2
2
2
2
2
2
2
2
2
2
2
2
2
2.00001
2.00001
2.00003
2.00006
2.00012
2.00025
2.00049
2.00094
2.0017
2.00294
2.00481
2.00747
2.01106
2.01564
2.02118
2.02749
2.03423
2.04093
2.04704
2.05205
2.05547
2.05673
2.05668
2.05643
2.05565
2.05376
2.04969
2.04151
2.03232
2.02395
2.01617
2.00909
2.00293
1.99795
1.99445
1.99201
1.99053
1.99011
1.99012
1.99018
1.99038
1.99084
1.99181
1.99369
1.99527
1.99648
1.99744
1.99818
1.99873
1.99913
1.9994
1.99958
1.99968
2
2
2
2
2
2
2
2
2
2
2
2
2
2
2
2
2
2.00001
2.00002
2.00004
2.00009
2.00017
2.00035
2.0007
2.0013
2.00233
2.00389
2.00619
2.00939
2.01363
2.01894
2.02522
2.03223
2.03957
2.0467
2.05306
2.05812
2.06143
2.06248
2.06241
2.06208
2.0611
2.05877
2.05385
2.04451
2.03539
2.02671
2.01851
2.01102
2.00433
1.99891
1.99475
1.99175
1.9898
1.9889
1.98885
1.98888
1.98901
1.98934
1.99011
1.99169
1.99364
1.99518
1.99644
1.99742
1.99817
1.99872
1.99911
1.99938
1.99955
2
2
2
2
2
2
2
2
2
2
2
2
2
2
2
2
2.00001
2.00002
2.00003
2.00007
2.00014
2.00028
2.00056
2.00107
2.00195
2.00337
2.00549
2.00853
2.01267
2.018
2.02452
2.03205
2.04022
2.04852
2.05632
2.06305
2.06814
2.07121
2.07186
2.07174
2.07125
2.06983
2.06655
2.05978
2.04938
2.03975
2.03045
2.02156
2.01338
2.00603
1.99989
1.99504
1.99138
1.98885
1.9874
1.98709
1.98711
1.98721
1.98748
1.98811
1.9894
1.99165
1.9935
1.99505
1.99631
1.99731
1.99807
1.99863
1.99903
1.9993
2
2
2
2
2
2
2
2
2
2
2
2
2
2
2
2.00001
2.00001
2.00003
2.00006
2.00011
2.00023
2.00046
2.00091
2.00169
2.00301
2.00504
2.00802
2.01217
2.01768
2.02461
2.03285
2.04208
2.0518
2.06131
2.06992
2.07701
2.08201
2.08463
2.08473
2.08454
2.08374
2.08158
2.07678
2.06715
2.05586
2.04541
2.03525
2.02547
2.01638
2.00818
2.00116
1.99543
1.99097
1.98773
1.98564
1.98482
1.98481
1.98486
1.98505
1.98556
1.98663
1.98889
1.99114
1.99307
1.9947
1.99603
1.99708
1.99788
1.99847
1.9989
2
2
2
2
2
2
2
2
2
2
2
2
2
2
2.00001
2.00001
2.00002
2.00005
2.00009
2.00019
2.00039
2.00077
2.00149
2.00271
2.00469
2.00762
2.01183
2.01757
2.02498
2.03406
2.04453
2.0559
2.06742
2.07824
2.08761
2.09484
2.09948
2.1012
2.1011
2.10064
2.09924
2.09583
2.08841
2.07563
2.06358
2.05217
2.041
2.03019
2.02006
2.01084
2.00279
1.99604
1.99063
1.98654
1.98369
1.98214
1.98194
1.98197
1.98212
1.98252
1.98339
1.98523
1.98801
1.99037
1.99243
1.99419
1.99562
1.99675
1.99761
1.99826
2
2
2
2
2
2
2
2
2
2
2
2
2
2
2.00001
2.00002
2.00004
2.00008
2.00016
2.00033
2.00066
2.0013
2.00243
2.00432
2.00723
2.01147
2.01741
2.02531
2.03524
2.04703
2.06021
2.07398
2.08736
2.09933
2.10911
2.11604
2.11985
2.12037
2.12014
2.11922
2.11676
2.11128
2.10007
2.08514
2.07206
2.05964
2.04742
2.03552
2.02429
2.01399
2.00482
1.99696
1.99048
1.98539
1.98166
1.97928
1.97851
1.97852
1.97861
1.9789
1.97959
1.98107
1.98401
1.98686
1.9894
1.99164
1.99355
1.9951
1.99633
1.9973
2
2
2
2
2
2
2
2
2
2
2
2
2
2.00001
2.00002
2.00003
2.00007
2.00014
2.00028
2.00056
2.00113
2.00216
2.00394
2.00681
2.01104
2.01712
2.02542
2.03614
2.04924
2.06428
2.08046
2.09666
2.11156
2.12418
2.13368
2.13963
2.1418
2.14165
2.14095
2.13896
2.13511
2.1272
2.11132
2.09483
2.08067
2.06726
2.05404
2.04115
2.02888
2.01749
2.00721
1.9982
1.99058
1.9844
1.97967
1.97635
1.97468
1.97455
1.9746
1.9748
1.97532
1.97649
1.97897
1.98244
1.98549
1.98826
1.99071
1.99278
1.99449
1.99587
2
2
2
2
2
2
2
2
2
2
2
2
2.00001
2.00001
2.00003
2.00006
2.00011
2.00024
2.00048
2.00097
2.00191
2.00356
2.00631
2.01053
2.01666
2.02525
2.03665
2.05096
2.06784
2.08649
2.10566
2.1238
2.1395
2.15179
2.16
2.16409
2.164
2.16365
2.16245
2.15958
2.15217
2.13702
2.11992
2.10406
2.08915
2.07464
2.06039
2.04663
2.03348
2.02115
2.00983
1.99971
1.99095
1.98364
1.97782
1.97348
1.97076
1.97003
1.97005
1.97018
1.97057
1.97147
1.97329
1.97699
1.98063
1.98394
1.98697
1.98963
1.99191
1.99383
2
2
2
2
2
2
2
2
2
2
2
2.00001
2.00001
2.00003
2.00005
2.0001
2.0002
2.00042
2.00083
2.00167
2.00319
2.00578
2.00995
2.01605
2.02481
2.03675
2.05211
2.07072
2.09182
2.11404
2.13561
2.15464
2.16987
2.18043
2.18618
2.18692
2.18656
2.18574
2.18188
2.17238
2.15699
2.13865
2.12232
2.10743
2.0936
2.07998
2.066
2.05171
2.03774
2.02463
2.01246
2.00138
1.99156
1.98314
1.9762
1.97077
1.96694
1.96514
1.96503
1.96509
1.96533
1.96597
1.96742
1.9704
1.97469
1.97861
1.98222
1.98552
1.98844
1.991
2
2
2
2
2
2
2
2
2
2
2.00001
2.00001
2.00002
2.00004
2.00009
2.00017
2.00036
2.00072
2.00144
2.00283
2.00525
2.00925
2.01534
2.02414
2.03644
2.05268
2.07286
2.09631
2.1216
2.14669
2.16928
2.18756
2.20052
2.20781
2.20928
2.20898
2.20762
2.20195
2.19019
2.17401
2.15686
2.1387
2.12265
2.10814
2.09451
2.08116
2.06781
2.05454
2.04112
2.02767
2.01484
2.00301
1.9923
1.98286
1.97484
1.96831
1.96335
1.96027
1.95951
1.95954
1.95969
1.96014
1.96118
1.96325
1.96758
1.97216
1.9764
1.98033
1.98393
1.98723
2
2
2
2
2
2
2
2
2
2.00001
2.00001
2.00002
2.00004
2.00008
2.00015
2.00031
2.00063
2.00126
2.00249
2.00474
2.00853
2.01456
2.02328
2.03579
2.05269
2.07423
2.09988
2.12818
2.15684
2.18314
2.20461
2.21998
2.22869
2.2306
2.23016
2.22731
2.2196
2.20607
2.19008
2.17378
2.15623
2.1386
2.12257
2.10803
2.09441
2.08115
2.06795
2.05488
2.04198
2.02925
2.0166
2.00435
1.99298
1.98272
1.97373
1.96615
1.96008
1.95572
1.9537
1.95358
1.95365
1.95391
1.95458
1.95614
1.95939
1.96449
1.96943
1.97401
1.9783
1.98236
2
2
2
2
2
2
2
2
2
2.00001
2.00002
2.00003
2.00007
2.00013
2.00027
2.00055
2.0011
2.00219
2.00424
2.00781
2.01363
2.02231
2.03487
2.05224
2.07489
2.10254
2.13374
2.16598
2.19606
2.22087
2.23867
2.24871
2.25074
2.25026
2.2459
2.23583
2.221
2.20554
2.18949
2.17238
2.1548
2.13764
2.12192
2.10745
2.0938
2.08055
2.06745
2.05454
2.0418
2.02928
2.017
2.00496
1.99336
1.98255
1.97279
1.96428
1.95716
1.9516
1.9481
1.94719
1.94721
1.94736
1.9478
1.94885
1.95107
1.9555
1.96114
1.96648
1.97146
1.9763
2
2
2
2
2
2
2
2
2.00001
2.00002
2.00003
2.00006
2.00012
2.00023
2.00048
2.00097
2.00193
2.00378
2.00711
2.01266
2.02131
2.03374
2.05139
2.07492
2.10431
2.13827
2.17404
2.20795
2.23624
2.25648
2.26783
2.26979
2.26931
2.26367
2.25126
2.23591
2.21994
2.20386
2.18698
2.16962
2.15231
2.13568
2.12021
2.10585
2.09222
2.07901
2.06604
2.05333
2.04084
2.02857
2.01652
2.00471
1.99319
1.98214
1.97187
1.96263
1.95459
1.94795
1.94306
1.94066
1.94045
1.94052
1.94077
1.94139
1.94284
1.9459
1.95163
1.95759
1.96336
1.96898
2
2
2
2
2
2
2
2.00001
2.00001
2.00003
2.00005
2.0001
2.0002
2.00042
2.00085
2.00171
2.00336
2.00644
2.01171
2.02017
2.03248
2.05024
2.07442
2.10529
2.14177
2.18104
2.21881
2.25065
2.27338
2.28603
2.28795
2.28737
2.28076
2.26659
2.25082
2.23399
2.21727
2.20029
2.18308
2.16576
2.14876
2.13251
2.1173
2.10306
2.0895
2.07638
2.06356
2.05108
2.03886
2.0269
2.01517
2.00364
1.99232
1.9813
1.9708
1.96106
1.95231
1.94475
1.93865
1.93464
1.93336
1.93336
1.93347
1.93384
1.9348
1.93686
1.94076
1.9474
1.95387
1.96034
2
2
2
2
2
2.00001
2.00001
2.00001
2.00002
2.00005
2.00009
2.00018
2.00037
2.00075
2.00151
2.00301
2.00583
2.01078
2.01893
2.03121
2.04889
2.0735
2.10559
2.14434
2.18694
2.22869
2.26415
2.2894
2.30331
2.30525
2.30436
2.29697
2.28163
2.26503
2.24743
2.23005
2.21273
2.19543
2.17809
2.16091
2.14421
2.12826
2.11325
2.09915
2.08569
2.0727
2.06007
2.04782
2.03588
2.02424
2.01286
2.00168
1.99068
1.97988
1.96939
1.95943
1.9502
1.94193
1.93483
1.9294
1.92642
1.92595
1.92599
1.92618
1.9267
1.92788
1.93043
1.93592
1.94299
1.95023
2
2
2
2
2.00001
2.00001
2.00001
2.00002
2.00004
2.00008
2.00016
2.00033
2.00067
2.00135
2.00269
2.00527
2.00992
2.01773
2.02995
2.04741
2.07228
2.10534
2.14611
2.19185
2.23752
2.27686
2.30466
2.31969
2.32165
2.32034
2.3125
2.29615
2.27877
2.26031
2.24227
2.22455
2.207
2.18953
2.1722
2.15521
2.13877
2.12307
2.10824
2.09426
2.08093
2.0681
2.05567
2.04366
2.03201
2.02069
2.00967
1.99887
1.98826
1.97778
1.9675
1.95756
1.94811
1.93936
1.93153
1.92495
1.92032
1.91838
1.91829
1.91836
1.91862
1.91929
1.92083
1.92415
1.93088
1.93873
2
2
2
2
2.00001
2.00001
2.00002
2.00004
2.00008
2.00015
2.0003
2.0006
2.00121
2.00243
2.00478
2.00912
2.01657
2.02855
2.04591
2.07088
2.1047
2.14723
2.19591
2.24541
2.28868
2.31969
2.33543
2.33707
2.33534
2.32732
2.31032
2.29228
2.27296
2.25427
2.23602
2.21809
2.20037
2.18285
2.1656
2.14881
2.13262
2.11714
2.10245
2.08859
2.07538
2.06272
2.0505
2.03873
2.02735
2.01636
2.00569
1.99528
1.98508
1.97499
1.96505
1.95531
1.94587
1.9369
1.92859
1.92119
1.91521
1.91146
1.91036
1.91037
1.91048
1.91086
1.91181
1.91382
1.91775
1.92601
2
2
2
2.00001
2.00001
2.00002
2.00004
2.00007
2.00014
2.00027
2.00054
2.0011
2.0022
2.00436
2.00841
2.01549
2.02712
2.04454
2.06938
2.10378
2.14786
2.19929
2.25249
2.2997
2.3344
2.35067
2.35133
2.34941
2.34155
2.32416
2.30547
2.28549
2.26616
2.24735
2.22896
2.21091
2.19311
2.17561
2.15849
2.14189
2.12591
2.11062
2.09608
2.08232
2.06924
2.05673
2.04471
2.03316
2.02205
2.01135
2.00101
1.99098
1.98114
1.97151
1.96198
1.95258
1.94334
1.93438
1.92585
1.91792
1.91097
1.90565
1.90276
1.90222
1.90225
1.90242
1.90291
1.90406
1.90656
1.91198
2
2.00001
2.00001
2.00001
2.00002
2.00004
2.00007
2.00013
2.00025
2.0005
2.001
2.00202
2.004
2.00777
2.01452
2.02578
2.04325
2.06791
2.10273
2.14816
2.20216
2.25899
2.31006
2.34852
2.36432
2.36522
2.36308
2.35485
2.33771
2.31866
2.29799
2.27802
2.25866
2.23979
2.22134
2.20321
2.18542
2.16798
2.151
2.13458
2.11879
2.10368
2.08927
2.07562
2.06265
2.05028
2.03844
2.0271
2.01623
2.0058
1.99576
1.98607
1.97659
1.96738
1.95831
1.94932
1.94042
1.93166
1.92313
1.91497
1.90741
1.90093
1.89629
1.89412
1.89388
1.89393
1.89413
1.89467
1.89598
1.899
2.00001
2.00001
2.00001
2.00002
2.00004
2.00007
2.00012
2.00024
2.00047
2.00093
2.00186
2.00372
2.00722
2.01365
2.02455
2.04192
2.06656
2.10168
2.14827
2.2047
2.26507
2.32005
2.36172
2.3771
2.37865
2.37626
2.36795
2.35073
2.33103
2.31019
2.28982
2.27002
2.25067
2.23179
2.2133
2.19518
2.17743
2.16009
2.14325
2.12699
2.11138
2.09642
2.08215
2.06861
2.05575
2.0435
2.03182
2.02066
2.01
1.99981
1.99004
1.98066
1.97152
1.96269
1.95406
1.94552
1.93704
1.92861
1.92027
1.91212
1.9043
1.8971
1.89109
1.88707
1.88543
1.8853
1.88535
1.88554
1.88607
1.88743
2.00001
2.00001
2.00002
2.00004
2.00007
2.00012
2.00023
2.00044
2.00087
2.00174
2.00347
2.00678
2.0129
2.02348
2.04056
2.0655
2.10076
2.14838
2.20704
2.27094
2.33012
2.3749
2.38949
2.3913
2.38893
2.38071
2.3635
2.34317
2.32209
2.30155
2.28141
2.26164
2.24234
2.22347
2.20499
2.18691
2.16924
2.15202
2.13532
2.11922
2.10376
2.08894
2.0748
2.06136
2.04861
2.03647
2.02494
2.01394
2.00347
1.99348
1.98395
1.97476
1.96601
1.95754
1.9493
1.94121
1.93318
1.92516
1.91716
1.90921
1.90139
1.89387
1.887
1.88145
1.87792
1.87659
1.87651
1.87656
1.87672
1.87719
2.00002
2.00002
2.00004
2.00007
2.00012
2.00022
2.00042
2.00083
2.00164
2.00327
2.00642
2.01228
2.02256
2.03944
2.06481
2.1001
2.14865
2.20941
2.27666
2.34044
2.38713
2.40143
2.40322
2.40104
2.39313
2.37575
2.35563
2.33409
2.31312
2.29271
2.27268
2.25304
2.23379
2.21495
2.19652
2.17851
2.16093
2.14383
2.12726
2.11131
2.09598
2.0813
2.06728
2.05395
2.04129
2.02926
2.01786
2.00701
1.9967
1.9869
1.97758
1.9686
1.96013
1.95199
1.94412
1.93644
1.92885
1.92129
1.91371
1.9061
1.89849
1.89096
1.88371
1.87717
1.87202
1.86885
1.86771
1.86766
1.86771
1.86783
2.00003
2.00004
2.00007
2.00012
2.00023
2.00042
2.00081
2.00158
2.00313
2.00614
2.0118
2.02184
2.03854
2.0643
2.09983
2.1493
2.21202
2.28249
2.35125
2.39872
2.41322
2.41454
2.41254
2.40486
2.388
2.3678
2.34603
2.32462
2.3039
2.28368
2.26381
2.24427
2.22509
2.20631
2.18795
2.17001
2.15254
2.13556
2.11912
2.10329
2.08809
2.07353
2.05962
2.04639
2.03383
2.02191
2.01062
1.99991
1.98975
1.98012
1.97096
1.96223
1.95399
1.94614
1.93859
1.93127
1.9241
1.91699
1.90987
1.90269
1.89543
1.88813
1.88086
1.87388
1.86765
1.86285
1.85995
1.85898
1.85891
1.85892
2.00005
2.00008
2.00013
2.00024
2.00043
2.0008
2.00155
2.00303
2.00595
2.01145
2.02132
2.03791
2.06402
2.10011
2.15051
2.21513
2.28869
2.36197
2.40967
2.42472
2.42569
2.4236
2.4161
2.40008
2.37954
2.3576
2.33601
2.31509
2.29463
2.27457
2.25482
2.23539
2.21631
2.1976
2.17932
2.16147
2.1441
2.12723
2.11091
2.09519
2.0801
2.06565
2.05184
2.03871
2.02625
2.01443
2.00326
1.99267
1.98265
1.97317
1.96411
1.95566
1.94764
1.94003
1.93277
1.92578
1.91898
1.91229
1.90563
1.89892
1.89211
1.88519
1.87817
1.87117
1.86445
1.85853
1.85401
1.85138
1.8505
1.8502
2.0001
2.00015
2.00025
2.00045
2.00083
2.00155
2.00299
2.00584
2.01125
2.02101
2.03759
2.06395
2.10112
2.15246
2.21903
2.2955
2.37361
2.42046
2.43586
2.43661
2.43445
2.42696
2.41177
2.39066
2.36878
2.34717
2.32614
2.30553
2.28529
2.26538
2.24577
2.22645
2.20747
2.18886
2.17066
2.1529
2.13562
2.11885
2.10264
2.08702
2.07202
2.05766
2.04396
2.03092
2.01855
2.00682
1.99576
1.98529
1.9754
1.96608
1.95719
1.94891
1.94111
1.93372
1.92671
1.92001
1.91355
1.90724
1.90101
1.89477
1.88845
1.88201
1.87541
1.86867
1.86194
1.8555
1.84985
1.84562
1.84323
1.84188
2.00019
2.00029
2.00048
2.00087
2.0016
2.00302
2.00582
2.01118
2.02094
2.03765
2.06442
2.10306
2.15535
2.22395
2.30327
2.38567
2.43156
2.44696
2.44781
2.44538
2.43782
2.42253
2.40131
2.37971
2.35802
2.33698
2.31632
2.29597
2.27592
2.25616
2.23668
2.21748
2.1986
2.18008
2.16197
2.1443
2.1271
2.11042
2.09429
2.07876
2.06385
2.04958
2.03596
2.023
2.01072
1.99909
1.98813
1.97778
1.96802
1.95879
1.95013
1.94201
1.93441
1.92723
1.92045
1.91401
1.90784
1.90188
1.89605
1.89026
1.88443
1.87849
1.8724
1.86611
1.85967
1.85321
1.84703
1.84166
1.83771
1.83471
2.00038
2.00056
2.00093
2.00168
2.00312
2.00591
2.01127
2.02113
2.03811
2.06553
2.10579
2.1594
2.23021
2.31237
2.39836
2.4425
2.45773
2.45883
2.4561
2.44831
2.43281
2.41179
2.39028
2.3686
2.34756
2.3269
2.30654
2.28641
2.26654
2.24693
2.22758
2.20849
2.18971
2.17128
2.15325
2.13566
2.11853
2.10193
2.08588
2.07043
2.05559
2.04139
2.02785
2.01497
2.00277
1.99123
1.98037
1.97013
1.96049
1.95135
1.9429
1.93497
1.92754
1.92057
1.91401
1.9078
1.90191
1.89625
1.89078
1.8854
1.88003
1.8746
1.86904
1.8633
1.85733
1.85118
1.84499
1.83907
1.834
1.82929
2.00074
2.00109
2.00182
2.00328
2.00613
2.01154
2.02159
2.03904
2.06735
2.10949
2.16485
2.2381
2.32292
2.41313
2.45467
2.46882
2.46978
2.46676
2.45854
2.44267
2.42184
2.40054
2.37898
2.35794
2.33724
2.31692
2.2968
2.27687
2.25717
2.2377
2.21847
2.19948
2.1808
2.16245
2.14449
2.12697
2.10991
2.09337
2.07739
2.06199
2.04722
2.03309
2.01961
2.00681
1.99468
1.98323
1.97246
1.96233
1.95281
1.94382
1.9355
1.92775
1.92051
1.91373
1.90737
1.9014
1.89575
1.89038
1.88523
1.88022
1.87528
1.87033
1.8653
1.86011
1.85471
1.84907
1.84321
1.83729
1.83171
1.82564
2.00145
2.00214
2.00356
2.00644
2.01204
2.02238
2.0405
2.07002
2.11437
2.17201
2.24802
2.3356
2.42804
2.46674
2.47956
2.48066
2.47741
2.46879
2.45178
2.43201
2.4104
2.38902
2.36806
2.3474
2.32708
2.30701
2.2871
2.26736
2.24782
2.22848
2.20935
2.19046
2.17185
2.15357
2.13568
2.11821
2.10122
2.08473
2.0688
2.05346
2.03874
2.02466
2.01125
1.99851
1.98645
1.97508
1.9644
1.95437
1.94495
1.93613
1.92794
1.92036
1.91329
1.9067
1.90055
1.89479
1.88938
1.88428
1.87942
1.87474
1.87019
1.86568
1.86115
1.85651
1.85169
1.84664
1.84131
1.83575
1.83025
1.8234
2.00287
2.00422
2.00701
2.01266
2.02354
2.04256
2.07369
2.12069
2.18122
2.26032
2.35192
2.4451
2.48019
2.49061
2.4909
2.48755
2.47889
2.46074
2.44173
2.4198
2.39861
2.37781
2.35728
2.33703
2.31701
2.29717
2.27746
2.25789
2.23848
2.21925
2.20021
2.1814
2.16286
2.14464
2.1268
2.10938
2.09243
2.07599
2.06011
2.04481
2.03013
2.01611
2.00275
1.99007
1.97808
1.96678
1.95618
1.94624
1.93686
1.92824
1.92021
1.91277
1.90587
1.89947
1.89352
1.88798
1.8828
1.87794
1.87336
1.869
1.86479
1.86069
1.8566
1.85248
1.84822
1.84378
1.83907
1.83406
1.82901
1.82194
2.00564
2.00829
2.01375
2.02484
2.0453
2.07854
2.12878
2.19294
2.27548
2.3719
2.46214
2.49394
2.50238
2.50163
2.49781
2.48873
2.46985
2.45051
2.42891
2.40781
2.38711
2.36678
2.3467
2.32679
2.30704
2.28741
2.26787
2.24843
2.22914
2.21
2.19104
2.17229
2.1538
2.13564
2.11784
2.10046
2.08355
2.06715
2.05129
2.03603
2.0214
2.00741
1.9941
1.98147
1.96954
1.95831
1.94778
1.93794
1.92867
1.92015
1.91227
1.90498
1.89825
1.89203
1.88627
1.88094
1.87599
1.87138
1.86706
1.86299
1.85911
1.85536
1.85169
1.84803
1.8443
1.84043
1.83635
1.83197
1.82758
1.82073
2.01101
2.01616
2.02681
2.04835
2.08474
2.13907
2.2076
2.294
2.39642
2.47941
2.50718
2.5135
2.5117
2.5065
2.49762
2.47903
2.45916
2.43759
2.41649
2.39595
2.37584
2.35597
2.33627
2.31667
2.29716
2.2777
2.2583
2.23899
2.21978
2.20071
2.18181
2.16311
2.14467
2.12654
2.10878
2.09143
2.07455
2.05817
2.04235
2.02711
2.01251
1.99856
1.98529
1.97271
1.96083
1.94966
1.93921
1.92945
1.92031
1.91187
1.90412
1.89698
1.89041
1.88436
1.87879
1.87367
1.86894
1.86457
1.86051
1.85671
1.85314
1.84973
1.84643
1.84319
1.83994
1.8366
1.83311
1.82934
1.82566
1.81934
2.0213
2.03123
2.05167
2.09217
2.15209
2.22583
2.31627
2.42473
2.49805
2.52242
2.52598
2.52365
2.516
2.50443
2.48816
2.4668
2.4459
2.42475
2.40438
2.38447
2.36484
2.34539
2.32601
2.30667
2.28735
2.26803
2.24875
2.22953
2.21039
2.19138
2.17252
2.15386
2.13545
2.11735
2.09961
2.08228
2.06542
2.04906
2.03325
2.01804
2.00346
1.98954
1.9763
1.96376
1.95194
1.94082
1.93043
1.92073
1.91173
1.9034
1.89576
1.88875
1.88233
1.87645
1.87107
1.86615
1.86164
1.85751
1.8537
1.85017
1.84689
1.8438
1.84085
1.83799
1.83517
1.8323
1.82935
1.82616
1.82315
1.81751
2.04086
2.05986
2.0988
2.16791
2.24848
2.34336
2.45591
2.516
2.53587
2.53766
2.53472
2.5271
2.51152
2.49504
2.47375
2.45351
2.43259
2.41243
2.39271
2.37334
2.35415
2.33502
2.3159
2.29676
2.27759
2.25839
2.23919
2.22004
2.20095
2.18198
2.16314
2.14451
2.12612
2.10804
2.09031
2.073
2.05614
2.03979
2.024
2.0088
1.99424
1.98034
1.96713
1.95463
1.94284
1.93178
1.92145
1.91178
1.9029
1.89469
1.88717
1.88029
1.87402
1.8683
1.8631
1.85838
1.85408
1.85018
1.84662
1.84336
1.84035
1.83757
1.83495
1.83244
1.83001
1.82757
1.8251
1.82243
1.82002
1.81512
2.07777
2.11246
2.18269
2.27606
2.37882
2.49101
2.5372
2.55059
2.54901
2.54417
2.53574
2.51968
2.5008
2.48035
2.46009
2.4398
2.41999
2.40056
2.38146
2.36256
2.34371
2.32484
2.30592
2.28693
2.26786
2.24875
2.22962
2.2105
2.19145
2.17249
2.15367
2.13505
2.11667
2.09859
2.08087
2.06356
2.0467
2.03036
2.01457
1.99938
1.98483
1.97094
1.95775
1.94528
1.93353
1.92251
1.91224
1.90265
1.89384
1.88574
1.87833
1.87158
1.86545
1.85989
1.85486
1.85033
1.84625
1.84257
1.83925
1.83626
1.83353
1.83104
1.82873
1.82656
1.82449
1.82244
1.8204
1.8182
1.81622
1.81222
2.14466
2.2009
2.30614
2.42716
2.52529
2.55686
2.5641
2.56195
2.55608
2.54268
2.52638
2.50636
2.48619
2.46593
2.44623
2.42689
2.40791
2.38917
2.3706
2.35206
2.33348
2.31481
2.29603
2.27714
2.25815
2.23909
2.21999
2.20091
2.18186
2.16291
2.14409
2.12546
2.10708
2.089
2.07127
2.05395
2.03709
2.02074
2.00494
1.98975
1.9752
1.96133
1.94816
1.93571
1.92399
1.91301
1.9028
1.89329
1.88455
1.87654
1.86924
1.86261
1.85661
1.8512
1.84635
1.84201
1.83813
1.83468
1.8316
1.82886
1.82641
1.82421
1.8222
1.82036
1.81862
1.81694
1.81529
1.81351
1.81194
1.80873
2.25857
2.33066
2.47832
2.55744
2.57874
2.57684
2.57178
2.56453
2.55164
2.53161
2.51151
2.4911
2.47116
2.45189
2.43309
2.41465
2.39639
2.37821
2.36003
2.34178
2.3234
2.30487
2.28618
2.26736
2.24841
2.22938
2.21031
2.19122
2.17217
2.15321
2.13437
2.11573
2.09734
2.07924
2.0615
2.04416
2.02728
2.01091
1.99511
1.97991
1.96536
1.95149
1.93832
1.92589
1.9142
1.90326
1.8931
1.88367
1.875
1.86706
1.85986
1.85335
1.84748
1.84223
1.83755
1.83339
1.82972
1.82649
1.82365
1.82117
1.81899
1.81707
1.81536
1.81383
1.81242
1.81108
1.8098
1.80842
1.80722
1.80472
2.42801
2.51257
2.58447
2.59436
2.59219
2.58553
2.57091
2.55689
2.53592
2.51555
2.49513
2.47563
2.45684
2.43864
2.42078
2.40307
2.38538
2.36761
2.34972
2.33165
2.3134
2.29496
2.27633
2.25755
2.23862
2.21961
2.20053
2.18143
2.16236
2.14337
2.12451
2.10585
2.08742
2.0693
2.05152
2.03416
2.01726
2.00087
1.98504
1.96983
1.95526
1.94139
1.92823
1.9158
1.90414
1.89323
1.88311
1.87375
1.86516
1.8573
1.85019
1.84379
1.83806
1.83295
1.82844
1.82447
1.821
1.81799
1.81539
1.81316
1.81125
1.80961
1.8082
1.80697
1.80588
1.80488
1.80395
1.80296
1.8021
1.80027
2.60047
2.59976
2.59955
2.59853
2.59453
2.58193
2.55927
2.53946
2.51817
2.49824
2.47926
2.46113
2.44359
2.42637
2.40925
2.39208
2.37478
2.35727
2.33956
2.32161
2.30343
2.28504
2.26644
2.24767
2.22876
2.20973
2.19063
2.17151
2.1524
2.13338
2.11448
2.09578
2.07731
2.05915
2.04133
2.02393
2.00699
1.99057
1.97472
1.95948
1.9449
1.93101
1.91785
1.90543
1.89378
1.8829
1.87277
1.86351
1.855
1.84722
1.8402
1.83391
1.8283
1.82335
1.819
1.81522
1.81196
1.80917
1.80681
1.80484
1.8032
1.80184
1.80072
1.79979
1.79902
1.79834
1.79776
1.79715
1.79661
1.79543
2.61814
2.60615
2.6026
2.59741
2.586
2.5609
2.53996
2.51993
2.5002
2.48204
2.46478
2.44801
2.43147
2.41497
2.39835
2.38153
2.36445
2.34709
2.32947
2.31158
2.29344
2.27507
2.25648
2.23771
2.21878
2.19973
2.18059
2.16143
2.14229
2.12321
2.10426
2.0855
2.06698
2.04876
2.0309
2.01345
1.99647
1.98
1.96412
1.94885
1.93424
1.92033
1.90716
1.89474
1.8831
1.87224
1.86214
1.85293
1.84449
1.8368
1.82987
1.82368
1.81821
1.8134
1.80922
1.80563
1.80258
1.80002
1.79791
1.79619
1.79482
1.79375
1.79292
1.79229
1.79182
1.79146