/*--------------------------------*- C++ -*----------------------------------*\
  =========                 |
  \\      /  F ield         | OpenFOAM: The Open Source CFD Toolbox
   \\    /   O peration     | Website:  https://openfoam.org
    \\  /    A nd           | Version:  9
     \\/     M anipulation  |
\*---------------------------------------------------------------------------*/
FoamFile
{
    format      ascii;
    class       surfaceScalarField;
    location    "0.002";
    object      phi;
}
// * * * * * * * * * * * * * * * * * * * * * * * * * * * * * * * * * * * * * //

dimensions      [1 0 -1 0 0 0 0];

internalField   nonuniform List<scalar> 
72280
(
1.12235e-05
4.7553e-20
1.12235e-05
1.23032e-19
1.12235e-05
7.90123e-20
1.12235e-05
-8.73503e-21
1.12235e-05
-8.58944e-20
1.12235e-05
-2.43668e-19
1.12235e-05
-5.06221e-19
1.12235e-05
-7.04056e-19
1.12235e-05
-7.25047e-19
1.12235e-05
-5.46429e-19
1.12235e-05
-6.5649e-19
1.12235e-05
-4.46982e-19
1.12235e-05
-3.28702e-19
1.12235e-05
-8.09605e-19
1.12235e-05
-2.47007e-18
1.12235e-05
-4.47519e-18
1.12235e-05
-5.01195e-18
1.12235e-05
-4.03778e-18
1.12235e-05
-4.87802e-18
1.12235e-05
-8.65873e-18
1.12235e-05
-1.54698e-17
1.12235e-05
-1.45451e-17
1.12235e-05
-1.53212e-17
1.12235e-05
-1.19914e-17
1.12235e-05
-8.68626e-18
1.12235e-05
-1.02044e-17
1.12235e-05
-1.73219e-17
1.12235e-05
-3.67604e-17
1.12235e-05
-4.39243e-17
1.12235e-05
-3.79905e-17
1.12235e-05
-4.01101e-17
1.12235e-05
-3.46824e-17
1.12235e-05
-3.46027e-17
1.12235e-05
-5.50232e-17
1.12235e-05
-7.08985e-17
1.12235e-05
-7.71108e-17
1.12235e-05
-2.46901e-17
1.12235e-05
-4.44911e-18
1.12235e-05
-7.42484e-17
1.12235e-05
-1.05447e-16
1.12235e-05
-1.17686e-16
1.12235e-05
-5.44209e-17
1.12235e-05
-3.57094e-17
1.12235e-05
-8.36194e-17
1.12235e-05
-8.97401e-17
1.12235e-05
-9.37512e-17
1.12235e-05
-1.39927e-16
1.12235e-05
-1.42575e-16
1.12235e-05
-9.94372e-17
1.12235e-05
-8.65254e-17
1.12235e-05
-5.78341e-17
1.12235e-05
-6.87564e-17
1.12235e-05
-5.72738e-17
1.12235e-05
-2.27751e-16
1.12235e-05
-2.35467e-16
1.12235e-05
-3.91778e-17
1.12235e-05
-7.26357e-16
1.12235e-05
-1.1279e-15
1.12235e-05
5.12745e-17
8.11141e-16
1.12235e-05
1.12235e-05
-7.52801e-20
1.12235e-05
-1.26261e-20
1.12235e-05
7.65241e-20
1.12235e-05
1.18505e-19
1.12235e-05
-2.80183e-20
1.12235e-05
-2.01647e-19
1.12235e-05
-4.34104e-19
1.12235e-05
-7.66763e-19
1.12235e-05
-1.18222e-18
1.12235e-05
-1.62068e-18
1.12235e-05
-1.75774e-18
1.12235e-05
-2.58909e-18
1.12235e-05
-3.88109e-18
1.12235e-05
-4.67241e-18
1.12235e-05
-5.31917e-18
1.12235e-05
-7.31507e-18
1.12235e-05
-9.2364e-18
1.12235e-05
-1.08994e-17
1.12235e-05
-1.23561e-17
1.12235e-05
-1.34681e-17
1.12235e-05
-1.59931e-17
1.12235e-05
-2.071e-17
1.12235e-05
-2.19232e-17
1.12235e-05
-2.4439e-17
1.12235e-05
-2.74023e-17
1.12235e-05
-3.25978e-17
1.12235e-05
-4.06076e-17
1.12235e-05
-4.94725e-17
1.12235e-05
-5.17202e-17
1.12235e-05
-5.45227e-17
1.12235e-05
-6.24759e-17
1.12235e-05
-8.78064e-17
1.12235e-05
-8.71006e-17
1.12235e-05
-7.80321e-17
1.12235e-05
-9.67978e-17
1.12235e-05
-1.4135e-16
1.12235e-05
-1.48614e-16
1.12235e-05
-1.38896e-16
1.12235e-05
-1.79917e-16
1.12235e-05
-2.35975e-16
1.12235e-05
-2.49108e-16
1.12235e-05
-2.83382e-16
1.12235e-05
-3.36195e-16
1.12235e-05
-3.5904e-16
1.12235e-05
-4.30896e-16
1.12235e-05
-5.28202e-16
1.12235e-05
-4.76048e-16
1.12235e-05
-5.19056e-16
1.12235e-05
-6.54844e-16
1.12235e-05
-6.80158e-16
1.12235e-05
-6.41239e-16
1.12235e-05
-6.31828e-16
1.12235e-05
-6.18246e-16
1.12235e-05
-5.60133e-16
1.12235e-05
-9.21328e-16
1.12235e-05
-2.73039e-16
1.12235e-05
3.6172e-16
1.12235e-05
-7.34816e-17
1.12235e-05
-7.05903e-16
-1.01534e-15
1.12235e-05
1.12235e-05
5.69233e-20
1.12235e-05
5.77438e-20
1.12235e-05
5.46601e-20
1.12235e-05
1.08394e-19
1.12235e-05
1.6308e-19
1.12235e-05
2.42715e-19
1.12235e-05
3.4011e-19
1.12235e-05
4.64968e-19
1.12235e-05
2.44634e-19
1.12235e-05
-2.64102e-19
1.12235e-05
-1.21705e-18
1.12235e-05
-2.22928e-18
1.12235e-05
-3.32186e-18
1.12235e-05
-5.04129e-18
1.12235e-05
-6.31529e-18
1.12235e-05
-5.86155e-18
1.12235e-05
-6.65323e-18
1.12235e-05
-7.34714e-18
1.12235e-05
-8.25768e-18
1.12235e-05
-9.16111e-18
1.12235e-05
-1.08114e-17
1.12235e-05
-1.26111e-17
1.12235e-05
-1.36211e-17
1.12235e-05
-1.48996e-17
1.12235e-05
-1.5998e-17
1.12235e-05
-2.09e-17
1.12235e-05
-3.03605e-17
1.12235e-05
-2.04809e-17
1.12235e-05
-2.0245e-17
1.12235e-05
-4.27499e-17
1.12235e-05
-6.78113e-17
1.12235e-05
-4.83405e-17
1.12235e-05
-3.74522e-17
1.12235e-05
-7.83332e-17
1.12235e-05
-1.21719e-16
1.12235e-05
-1.06318e-16
1.12235e-05
-1.05169e-16
1.12235e-05
-1.17005e-16
1.12235e-05
-1.29658e-16
1.12235e-05
-1.27448e-16
1.12235e-05
-1.4455e-16
1.12235e-05
-2.17425e-16
1.12235e-05
-1.398e-16
1.12235e-05
-4.30378e-17
1.12235e-05
-7.00755e-17
1.12235e-05
-3.02793e-16
1.12235e-05
-2.43763e-16
1.12235e-05
7.53895e-17
1.12235e-05
4.14892e-17
1.12235e-05
-2.23588e-17
1.12235e-05
-6.09871e-17
1.12235e-05
2.08413e-16
1.12235e-05
1.63222e-16
1.12235e-05
1.75284e-17
1.12235e-05
-6.93561e-17
1.12235e-05
1.2483e-16
1.12235e-05
-1.53666e-16
1.12235e-05
-8.60483e-16
1.12235e-05
-2.69214e-15
-4.96407e-15
1.12235e-05
1.12235e-05
-3.00829e-20
1.12235e-05
-5.14308e-20
1.12235e-05
-4.02605e-20
1.12235e-05
7.41154e-22
1.12235e-05
8.69797e-20
1.12235e-05
1.45769e-19
1.12235e-05
4.24708e-20
1.12235e-05
-1.91085e-19
1.12235e-05
-2.37143e-19
1.12235e-05
-2.65095e-19
1.12235e-05
-1.3624e-19
1.12235e-05
3.52154e-19
1.12235e-05
9.80149e-19
1.12235e-05
1.23635e-18
1.12235e-05
5.06671e-19
1.12235e-05
-2.60621e-19
1.12235e-05
-1.38183e-18
1.12235e-05
-3.87138e-18
1.12235e-05
-4.79425e-18
1.12235e-05
-4.2759e-18
1.12235e-05
1.32786e-19
1.12235e-05
-1.38954e-18
1.12235e-05
-7.25275e-18
1.12235e-05
-1.15565e-17
1.12235e-05
-1.63445e-17
1.12235e-05
-1.91759e-17
1.12235e-05
-7.79288e-18
1.12235e-05
-1.92495e-18
1.12235e-05
-7.42713e-18
1.12235e-05
-1.76048e-17
1.12235e-05
-3.21359e-18
1.12235e-05
2.73748e-18
1.12235e-05
-7.35211e-19
1.12235e-05
-6.20854e-18
1.12235e-05
1.94132e-17
1.12235e-05
2.36085e-17
1.12235e-05
8.65601e-18
1.12235e-05
-3.66452e-17
1.12235e-05
2.01858e-17
1.12235e-05
4.81044e-17
1.12235e-05
7.37459e-18
1.12235e-05
-4.12803e-17
1.12235e-05
3.94441e-18
1.12235e-05
-6.95298e-17
1.12235e-05
-1.43075e-16
1.12235e-05
-2.23652e-16
1.12235e-05
-3.05785e-16
1.12235e-05
-2.59524e-16
1.12235e-05
-8.13633e-17
1.12235e-05
-6.37299e-17
1.12235e-05
-1.84627e-16
1.12235e-05
1.13603e-16
1.12235e-05
-6.39139e-17
1.12235e-05
-4.4056e-16
1.12235e-05
-6.59584e-16
1.12235e-05
-6.7202e-16
1.12235e-05
-1.53612e-15
1.12235e-05
-3.33587e-15
1.12235e-05
-4.16261e-15
-3.44089e-15
1.12235e-05
1.12235e-05
1.3354e-20
1.12235e-05
-3.18828e-20
1.12235e-05
-3.51783e-20
1.12235e-05
-1.15938e-19
1.12235e-05
-2.21579e-19
1.12235e-05
-3.66408e-19
1.12235e-05
-4.74471e-19
1.12235e-05
-5.93069e-19
1.12235e-05
-6.52626e-19
1.12235e-05
-9.49299e-19
1.12235e-05
-1.81428e-18
1.12235e-05
-2.92769e-18
1.12235e-05
-4.06355e-18
1.12235e-05
-4.83227e-18
1.12235e-05
-5.19471e-18
1.12235e-05
-7.01251e-18
1.12235e-05
-8.14283e-18
1.12235e-05
-7.62405e-18
1.12235e-05
-8.13108e-18
1.12235e-05
-8.23022e-18
1.12235e-05
-6.43531e-18
1.12235e-05
-1.90232e-18
1.12235e-05
-2.03752e-18
1.12235e-05
-2.38195e-18
1.12235e-05
-3.77591e-20
1.12235e-05
-2.2728e-18
1.12235e-05
-1.00056e-17
1.12235e-05
-1.3219e-17
1.12235e-05
-1.26532e-17
1.12235e-05
-7.59448e-18
1.12235e-05
-1.3694e-17
1.12235e-05
-2.04105e-17
1.12235e-05
-3.27081e-17
1.12235e-05
-2.1537e-17
1.12235e-05
-1.79732e-17
1.12235e-05
-5.60569e-17
1.12235e-05
-1.15191e-16
1.12235e-05
-9.73819e-17
1.12235e-05
-9.42681e-17
1.12235e-05
-1.68851e-16
1.12235e-05
-2.00366e-16
1.12235e-05
-1.50967e-16
1.12235e-05
-2.73364e-16
1.12235e-05
-5.36874e-16
1.12235e-05
-6.98885e-16
1.12235e-05
-6.29477e-16
1.12235e-05
-7.34688e-16
1.12235e-05
-9.92112e-16
1.12235e-05
-1.19832e-15
1.12235e-05
-1.6001e-15
1.12235e-05
-1.43071e-15
1.12235e-05
-1.36629e-15
1.12235e-05
-2.18793e-15
1.12235e-05
-3.08131e-15
1.12235e-05
-2.56272e-15
1.12235e-05
-2.90837e-15
1.12235e-05
-4.77748e-15
1.12235e-05
-5.7921e-15
1.12235e-05
-5.32769e-15
-6.27627e-15
1.12235e-05
1.12235e-05
-5.66718e-20
1.12235e-05
-1.67593e-19
1.12235e-05
-2.86853e-19
1.12235e-05
-5.01073e-19
1.12235e-05
-8.28584e-19
1.12235e-05
-1.03732e-18
1.12235e-05
-1.25497e-18
1.12235e-05
-1.6962e-18
1.12235e-05
-2.30149e-18
1.12235e-05
-2.89699e-18
1.12235e-05
-3.20206e-18
1.12235e-05
-4.26226e-18
1.12235e-05
-5.53746e-18
1.12235e-05
-6.01751e-18
1.12235e-05
-5.99353e-18
1.12235e-05
-4.47935e-18
1.12235e-05
-3.25543e-18
1.12235e-05
-3.81099e-18
1.12235e-05
-8.55029e-18
1.12235e-05
-1.21883e-17
1.12235e-05
-1.4321e-17
1.12235e-05
-1.9956e-17
1.12235e-05
-2.44328e-17
1.12235e-05
-2.66353e-17
1.12235e-05
-3.23045e-17
1.12235e-05
-3.63826e-17
1.12235e-05
-5.08562e-17
1.12235e-05
-6.87703e-17
1.12235e-05
-7.85804e-17
1.12235e-05
-8.2324e-17
1.12235e-05
-1.214e-16
1.12235e-05
-1.62726e-16
1.12235e-05
-1.78991e-16
1.12235e-05
-1.91603e-16
1.12235e-05
-2.33579e-16
1.12235e-05
-3.08865e-16
1.12235e-05
-3.28281e-16
1.12235e-05
-3.62303e-16
1.12235e-05
-3.995e-16
1.12235e-05
-5.20513e-16
1.12235e-05
-5.88641e-16
1.12235e-05
-6.58327e-16
1.12235e-05
-7.72505e-16
1.12235e-05
-8.35014e-16
1.12235e-05
-7.77382e-16
1.12235e-05
-7.23997e-16
1.12235e-05
-9.79614e-16
1.12235e-05
-1.18816e-15
1.12235e-05
-1.40525e-15
1.12235e-05
-1.86708e-15
1.12235e-05
-2.53151e-15
1.12235e-05
-3.23096e-15
1.12235e-05
-3.73159e-15
1.12235e-05
-4.47788e-15
1.12235e-05
-5.42509e-15
1.12235e-05
-6.34455e-15
1.12235e-05
-7.39695e-15
1.12235e-05
-7.60761e-15
1.12235e-05
-8.54251e-15
-1.07363e-14
1.12235e-05
1.12235e-05
7.20243e-20
1.12235e-05
2.46751e-19
1.12235e-05
3.15493e-19
1.12235e-05
4.20195e-19
1.12235e-05
4.91835e-19
1.12235e-05
4.91081e-19
1.12235e-05
3.75911e-19
1.12235e-05
-1.23521e-19
1.12235e-05
-9.6219e-19
1.12235e-05
-1.98513e-18
1.12235e-05
-3.22064e-18
1.12235e-05
-2.46324e-18
1.12235e-05
-6.60606e-19
1.12235e-05
2.65889e-19
1.12235e-05
7.60556e-19
1.12235e-05
6.6459e-19
1.12235e-05
-1.17258e-18
1.12235e-05
-3.55003e-18
1.12235e-05
-6.28659e-18
1.12235e-05
-1.04008e-17
1.12235e-05
-1.45908e-17
1.12235e-05
-1.62353e-17
1.12235e-05
-1.37339e-17
1.12235e-05
-1.57357e-17
1.12235e-05
-1.89138e-17
1.12235e-05
-2.86514e-17
1.12235e-05
-4.00056e-17
1.12235e-05
-4.23894e-17
1.12235e-05
-5.01835e-17
1.12235e-05
-7.19405e-17
1.12235e-05
-9.68777e-17
1.12235e-05
-1.04327e-16
1.12235e-05
-1.18202e-16
1.12235e-05
-1.51522e-16
1.12235e-05
-2.27958e-16
1.12235e-05
-2.04847e-16
1.12235e-05
-2.09396e-16
1.12235e-05
-3.04145e-16
1.12235e-05
-5.20508e-16
1.12235e-05
-5.5243e-16
1.12235e-05
-5.54953e-16
1.12235e-05
-6.52194e-16
1.12235e-05
-8.10418e-16
1.12235e-05
-7.78495e-16
1.12235e-05
-9.09269e-16
1.12235e-05
-1.15252e-15
1.12235e-05
-1.33073e-15
1.12235e-05
-1.3251e-15
1.12235e-05
-1.8261e-15
1.12235e-05
-2.3452e-15
1.12235e-05
-2.62803e-15
1.12235e-05
-3.55115e-15
1.12235e-05
-4.24601e-15
1.12235e-05
-4.25729e-15
1.12235e-05
-5.79517e-15
1.12235e-05
-8.23153e-15
1.12235e-05
-7.89584e-15
1.12235e-05
-8.79594e-15
1.12235e-05
-1.33529e-14
-1.57628e-14
1.12235e-05
1.12235e-05
3.45563e-20
1.12235e-05
5.38528e-20
1.12235e-05
6.79479e-20
1.12235e-05
5.67512e-20
1.12235e-05
4.35296e-20
1.12235e-05
-4.65339e-20
1.12235e-05
-3.04442e-19
1.12235e-05
-4.70315e-19
1.12235e-05
-4.39226e-19
1.12235e-05
-5.23109e-19
1.12235e-05
-3.91144e-19
1.12235e-05
-9.46268e-19
1.12235e-05
-2.01161e-18
1.12235e-05
-2.84919e-18
1.12235e-05
-2.85151e-18
1.12235e-05
-5.14692e-18
1.12235e-05
-5.80502e-18
1.12235e-05
-5.6047e-18
1.12235e-05
-1.17219e-18
1.12235e-05
1.8554e-18
1.12235e-05
2.4294e-18
1.12235e-05
8.75713e-19
1.12235e-05
-5.40013e-18
1.12235e-05
-9.05297e-18
1.12235e-05
-1.18483e-17
1.12235e-05
-1.35911e-17
1.12235e-05
-1.32935e-17
1.12235e-05
-2.17699e-17
1.12235e-05
-3.66635e-17
1.12235e-05
-4.33785e-17
1.12235e-05
-5.13025e-17
1.12235e-05
-9.62899e-17
1.12235e-05
-1.46153e-16
1.12235e-05
-1.71884e-16
1.12235e-05
-1.53009e-16
1.12235e-05
-1.94944e-16
1.12235e-05
-2.66103e-16
1.12235e-05
-2.91122e-16
1.12235e-05
-3.0959e-16
1.12235e-05
-4.45417e-16
1.12235e-05
-6.10711e-16
1.12235e-05
-7.22171e-16
1.12235e-05
-6.41368e-16
1.12235e-05
-8.22739e-16
1.12235e-05
-1.3928e-15
1.12235e-05
-1.85564e-15
1.12235e-05
-2.15756e-15
1.12235e-05
-2.63312e-15
1.12235e-05
-2.82254e-15
1.12235e-05
-3.0569e-15
1.12235e-05
-4.57238e-15
1.12235e-05
-5.1305e-15
1.12235e-05
-5.11616e-15
1.12235e-05
-6.82741e-15
1.12235e-05
-8.53634e-15
1.12235e-05
-8.06514e-15
1.12235e-05
-1.01456e-14
1.12235e-05
-1.41842e-14
1.12235e-05
-1.34735e-14
-1.56646e-14
1.12235e-05
1.12235e-05
8.73503e-22
1.12235e-05
1.17791e-20
1.12235e-05
1.61201e-20
1.12235e-05
9.56883e-21
1.12235e-05
-1.09929e-19
1.12235e-05
-1.49316e-19
1.12235e-05
-2.75749e-19
1.12235e-05
-6.02889e-19
1.12235e-05
-1.01805e-18
1.12235e-05
-1.76404e-18
1.12235e-05
-2.75644e-18
1.12235e-05
-3.38936e-18
1.12235e-05
-4.376e-18
1.12235e-05
-6.42535e-18
1.12235e-05
-7.83827e-18
1.12235e-05
-7.87416e-18
1.12235e-05
-8.92585e-18
1.12235e-05
-9.75831e-18
1.12235e-05
-1.23352e-17
1.12235e-05
-1.56379e-17
1.12235e-05
-1.99356e-17
1.12235e-05
-2.78514e-17
1.12235e-05
-3.73159e-17
1.12235e-05
-4.7181e-17
1.12235e-05
-5.99015e-17
1.12235e-05
-6.50792e-17
1.12235e-05
-6.11796e-17
1.12235e-05
-7.82194e-17
1.12235e-05
-1.15742e-16
1.12235e-05
-1.31366e-16
1.12235e-05
-1.20117e-16
1.12235e-05
-1.44273e-16
1.12235e-05
-2.03218e-16
1.12235e-05
-2.13204e-16
1.12235e-05
-2.11466e-16
1.12235e-05
-2.65973e-16
1.12235e-05
-4.16334e-16
1.12235e-05
-4.63496e-16
1.12235e-05
-4.51091e-16
1.12235e-05
-4.11524e-16
1.12235e-05
-5.57271e-16
1.12235e-05
-7.25728e-16
1.12235e-05
-8.83287e-16
1.12235e-05
-1.25299e-15
1.12235e-05
-1.38478e-15
1.12235e-05
-1.39332e-15
1.12235e-05
-1.92751e-15
1.12235e-05
-2.59356e-15
1.12235e-05
-2.97432e-15
1.12235e-05
-3.92996e-15
1.12235e-05
-4.65253e-15
1.12235e-05
-4.8321e-15
1.12235e-05
-5.57224e-15
1.12235e-05
-7.2162e-15
1.12235e-05
-7.7497e-15
1.12235e-05
-8.46548e-15
1.12235e-05
-1.03735e-14
1.12235e-05
-1.23844e-14
1.12235e-05
-1.39144e-14
-1.67376e-14
1.12235e-05
1.12235e-05
-1.0707e-20
1.12235e-05
-1.05217e-19
1.12235e-05
-1.58925e-19
1.12235e-05
-2.57472e-19
1.12235e-05
-3.63205e-19
1.12235e-05
-8.19941e-19
1.12235e-05
-1.14209e-18
1.12235e-05
-1.65169e-18
1.12235e-05
-2.30715e-18
1.12235e-05
-2.64137e-18
1.12235e-05
-3.10598e-18
1.12235e-05
-4.37065e-18
1.12235e-05
-5.41815e-18
1.12235e-05
-6.49432e-18
1.12235e-05
-8.73149e-18
1.12235e-05
-1.00729e-17
1.12235e-05
-1.14361e-17
1.12235e-05
-1.3274e-17
1.12235e-05
-1.53689e-17
1.12235e-05
-2.33266e-17
1.12235e-05
-3.4749e-17
1.12235e-05
-3.27594e-17
1.12235e-05
-2.51022e-17
1.12235e-05
-2.81769e-17
1.12235e-05
-4.32361e-17
1.12235e-05
-5.32234e-17
1.12235e-05
-6.24056e-17
1.12235e-05
-8.44748e-17
1.12235e-05
-9.35265e-17
1.12235e-05
-9.73108e-17
1.12235e-05
-1.16739e-16
1.12235e-05
-1.61761e-16
1.12235e-05
-1.64906e-16
1.12235e-05
-1.80073e-16
1.12235e-05
-2.09517e-16
1.12235e-05
-2.71746e-16
1.12235e-05
-2.75839e-16
1.12235e-05
-2.98508e-16
1.12235e-05
-3.28253e-16
1.12235e-05
-5.01187e-16
1.12235e-05
-5.69747e-16
1.12235e-05
-5.97806e-16
1.12235e-05
-8.99223e-16
1.12235e-05
-1.09136e-15
1.12235e-05
-1.04616e-15
1.12235e-05
-1.34382e-15
1.12235e-05
-1.84277e-15
1.12235e-05
-2.14305e-15
1.12235e-05
-2.67028e-15
1.12235e-05
-3.09486e-15
1.12235e-05
-3.61363e-15
1.12235e-05
-4.40169e-15
1.12235e-05
-5.48447e-15
1.12235e-05
-5.56842e-15
1.12235e-05
-7.0661e-15
1.12235e-05
-8.96897e-15
1.12235e-05
-9.79854e-15
1.12235e-05
-1.15297e-14
1.12235e-05
-1.50978e-14
-1.63409e-14
1.12235e-05
1.12235e-05
6.20716e-21
1.12235e-05
6.98802e-21
1.12235e-05
-2.28434e-20
1.12235e-05
2.56889e-20
1.12235e-05
5.55204e-20
1.12235e-05
2.41219e-19
1.12235e-05
3.16962e-19
1.12235e-05
8.9669e-19
1.12235e-05
1.61282e-18
1.12235e-05
2.02807e-18
1.12235e-05
2.27945e-18
1.12235e-05
2.59538e-18
1.12235e-05
2.00675e-18
1.12235e-05
1.08988e-18
1.12235e-05
-1.3781e-18
1.12235e-05
-4.96172e-18
1.12235e-05
-9.23827e-18
1.12235e-05
-1.48081e-17
1.12235e-05
-2.1008e-17
1.12235e-05
-2.41377e-17
1.12235e-05
-2.17397e-17
1.12235e-05
-2.4194e-17
1.12235e-05
-2.86491e-17
1.12235e-05
-4.09808e-17
1.12235e-05
-5.29863e-17
1.12235e-05
-5.9464e-17
1.12235e-05
-7.34268e-17
1.12235e-05
-9.25048e-17
1.12235e-05
-9.56234e-17
1.12235e-05
-1.01274e-16
1.12235e-05
-1.25643e-16
1.12235e-05
-1.22485e-16
1.12235e-05
-9.79991e-17
1.12235e-05
-1.21711e-16
1.12235e-05
-2.30601e-16
1.12235e-05
-2.38699e-16
1.12235e-05
-1.74795e-16
1.12235e-05
-3.11302e-16
1.12235e-05
-4.97074e-16
1.12235e-05
-4.4543e-16
1.12235e-05
-4.75719e-16
1.12235e-05
-8.01569e-16
1.12235e-05
-8.85668e-16
1.12235e-05
-6.99668e-16
1.12235e-05
-9.49901e-16
1.12235e-05
-1.74299e-15
1.12235e-05
-1.47536e-15
1.12235e-05
-1.30018e-15
1.12235e-05
-1.66874e-15
1.12235e-05
-2.52249e-15
1.12235e-05
-2.09569e-15
1.12235e-05
-2.3735e-15
1.12235e-05
-4.2079e-15
1.12235e-05
-5.56143e-15
1.12235e-05
-4.6917e-15
1.12235e-05
-6.04225e-15
1.12235e-05
-1.04106e-14
1.12235e-05
-1.07507e-14
1.12235e-05
-1.16722e-14
-1.63098e-14
1.12235e-05
1.12235e-05
-9.8997e-21
1.12235e-05
-3.25711e-20
1.12235e-05
4.54883e-20
1.12235e-05
2.06425e-19
1.12235e-05
4.59992e-19
1.12235e-05
5.57374e-19
1.12235e-05
6.84561e-19
1.12235e-05
7.67425e-19
1.12235e-05
8.6261e-19
1.12235e-05
1.07113e-18
1.12235e-05
9.68622e-19
1.12235e-05
3.41381e-19
1.12235e-05
-2.39657e-19
1.12235e-05
1.07031e-19
1.12235e-05
1.35516e-18
1.12235e-05
5.35338e-19
1.12235e-05
7.72243e-19
1.12235e-05
8.6809e-19
1.12235e-05
5.16531e-19
1.12235e-05
-4.05967e-19
1.12235e-05
-4.77296e-18
1.12235e-05
-2.00582e-17
1.12235e-05
-3.14267e-17
1.12235e-05
-3.18971e-17
1.12235e-05
-2.27304e-17
1.12235e-05
-2.89842e-17
1.12235e-05
-4.7809e-17
1.12235e-05
-7.3046e-17
1.12235e-05
-8.75251e-17
1.12235e-05
-1.16313e-16
1.12235e-05
-1.37046e-16
1.12235e-05
-1.08614e-16
1.12235e-05
-1.2066e-16
1.12235e-05
-1.71525e-16
1.12235e-05
-2.28358e-16
1.12235e-05
-2.42828e-16
1.12235e-05
-3.05701e-16
1.12235e-05
-4.24052e-16
1.12235e-05
-4.90762e-16
1.12235e-05
-6.0628e-16
1.12235e-05
-8.2068e-16
1.12235e-05
-1.0289e-15
1.12235e-05
-1.02827e-15
1.12235e-05
-1.11906e-15
1.12235e-05
-1.16158e-15
1.12235e-05
-1.35163e-15
1.12235e-05
-1.6675e-15
1.12235e-05
-2.06587e-15
1.12235e-05
-1.97576e-15
1.12235e-05
-1.50194e-15
1.12235e-05
-2.54262e-15
1.12235e-05
-3.18964e-15
1.12235e-05
-3.05285e-15
1.12235e-05
-4.04935e-15
1.12235e-05
-4.953e-15
1.12235e-05
-6.16545e-15
1.12235e-05
-7.14733e-15
1.12235e-05
-7.32593e-15
1.12235e-05
-1.02469e-14
-1.3341e-14
1.12235e-05
1.12235e-05
-6.07349e-20
1.12235e-05
-7.2911e-20
1.12235e-05
-7.65109e-20
1.12235e-05
-1.97041e-19
1.12235e-05
-3.87637e-19
1.12235e-05
-4.01308e-19
1.12235e-05
-4.0426e-19
1.12235e-05
-5.01933e-19
1.12235e-05
-1.20328e-18
1.12235e-05
-2.11869e-18
1.12235e-05
-2.44205e-18
1.12235e-05
-2.55083e-18
1.12235e-05
-2.03014e-18
1.12235e-05
-1.52131e-18
1.12235e-05
-1.15725e-18
1.12235e-05
-1.27059e-18
1.12235e-05
-6.24867e-18
1.12235e-05
-9.249e-18
1.12235e-05
-1.32918e-17
1.12235e-05
-2.56167e-17
1.12235e-05
-3.49637e-17
1.12235e-05
-3.03449e-17
1.12235e-05
-2.99126e-17
1.12235e-05
-2.87275e-17
1.12235e-05
-2.8318e-17
1.12235e-05
-3.45168e-17
1.12235e-05
-5.54857e-17
1.12235e-05
-4.15444e-17
1.12235e-05
-2.90284e-17
1.12235e-05
-3.19169e-17
1.12235e-05
-6.1567e-17
1.12235e-05
-1.05107e-16
1.12235e-05
-1.38719e-16
1.12235e-05
-1.66978e-16
1.12235e-05
-2.15657e-16
1.12235e-05
-3.23181e-16
1.12235e-05
-4.01483e-16
1.12235e-05
-3.5218e-16
1.12235e-05
-4.17922e-16
1.12235e-05
-7.89746e-16
1.12235e-05
-9.81245e-16
1.12235e-05
-9.01012e-16
1.12235e-05
-1.10203e-15
1.12235e-05
-1.37765e-15
1.12235e-05
-1.36803e-15
1.12235e-05
-8.26414e-16
1.12235e-05
-9.02831e-16
1.12235e-05
-1.85525e-15
1.12235e-05
-2.09863e-15
1.12235e-05
-2.17958e-15
1.12235e-05
-2.93293e-15
1.12235e-05
-3.63975e-15
1.12235e-05
-3.52294e-15
1.12235e-05
-4.36818e-15
1.12235e-05
-5.80404e-15
1.12235e-05
-6.39605e-15
1.12235e-05
-6.92601e-15
1.12235e-05
-8.94413e-15
1.12235e-05
-1.09355e-14
-1.22901e-14
1.12235e-05
1.12235e-05
6.20187e-20
1.12235e-05
2.733e-20
1.12235e-05
8.8012e-21
1.12235e-05
7.21169e-20
1.12235e-05
2.9044e-19
1.12235e-05
5.51961e-19
1.12235e-05
9.088e-19
1.12235e-05
1.36195e-18
1.12235e-05
1.67887e-18
1.12235e-05
1.81031e-18
1.12235e-05
1.27775e-18
1.12235e-05
-9.82823e-20
1.12235e-05
-2.9206e-18
1.12235e-05
-7.13523e-18
1.12235e-05
-1.26518e-17
1.12235e-05
-1.57882e-17
1.12235e-05
-1.55801e-17
1.12235e-05
-1.74206e-17
1.12235e-05
-2.00214e-17
1.12235e-05
-2.37822e-17
1.12235e-05
-2.49404e-17
1.12235e-05
-2.91254e-17
1.12235e-05
-3.56546e-17
1.12235e-05
-4.079e-17
1.12235e-05
-4.5622e-17
1.12235e-05
-5.18356e-17
1.12235e-05
-6.37736e-17
1.12235e-05
-7.79395e-17
1.12235e-05
-9.23423e-17
1.12235e-05
-1.08955e-16
1.12235e-05
-1.15247e-16
1.12235e-05
-1.91869e-16
1.12235e-05
-2.55214e-16
1.12235e-05
-2.74628e-16
1.12235e-05
-2.59242e-16
1.12235e-05
-3.62828e-16
1.12235e-05
-4.642e-16
1.12235e-05
-5.11387e-16
1.12235e-05
-5.72338e-16
1.12235e-05
-5.6726e-16
1.12235e-05
-4.43829e-16
1.12235e-05
-3.94593e-16
1.12235e-05
-5.73479e-16
1.12235e-05
-9.11075e-16
1.12235e-05
-1.02172e-15
1.12235e-05
-1.21008e-15
1.12235e-05
-1.46427e-15
1.12235e-05
-1.69665e-15
1.12235e-05
-2.21124e-15
1.12235e-05
-2.72973e-15
1.12235e-05
-3.40428e-15
1.12235e-05
-4.58114e-15
1.12235e-05
-5.0624e-15
1.12235e-05
-4.86055e-15
1.12235e-05
-8.43134e-15
1.12235e-05
-1.06506e-14
1.12235e-05
-8.7978e-15
1.12235e-05
-1.12768e-14
1.12235e-05
-1.99708e-14
-1.85748e-14
1.12235e-05
1.12235e-05
-5.95702e-20
1.12235e-05
-7.3361e-20
1.12235e-05
-9.9222e-20
1.12235e-05
-3.77724e-20
1.12235e-05
2.7158e-20
1.12235e-05
1.00863e-19
1.12235e-05
2.11255e-19
1.12235e-05
4.71546e-19
1.12235e-05
8.55742e-19
1.12235e-05
9.84279e-19
1.12235e-05
1.20555e-18
1.12235e-05
1.41309e-18
1.12235e-05
9.9267e-19
1.12235e-05
-3.86909e-19
1.12235e-05
-2.90458e-18
1.12235e-05
-9.39754e-18
1.12235e-05
-1.28223e-17
1.12235e-05
-1.60001e-17
1.12235e-05
-1.60598e-17
1.12235e-05
-3.46209e-18
1.12235e-05
5.46199e-18
1.12235e-05
8.28815e-18
1.12235e-05
-2.9844e-18
1.12235e-05
-1.40203e-17
1.12235e-05
-2.23005e-17
1.12235e-05
-2.67722e-17
1.12235e-05
-8.85435e-18
1.12235e-05
-1.51828e-17
1.12235e-05
-4.27228e-17
1.12235e-05
-5.66474e-17
1.12235e-05
-5.82711e-17
1.12235e-05
-7.93944e-17
1.12235e-05
-1.61309e-16
1.12235e-05
-2.1393e-16
1.12235e-05
-2.15946e-16
1.12235e-05
-1.56532e-16
1.12235e-05
-2.9486e-16
1.12235e-05
-6.13703e-16
1.12235e-05
-6.83358e-16
1.12235e-05
-5.17483e-16
1.12235e-05
-5.3938e-16
1.12235e-05
-6.6216e-16
1.12235e-05
-1.06798e-15
1.12235e-05
-1.08812e-15
1.12235e-05
-1.23148e-15
1.12235e-05
-1.72198e-15
1.12235e-05
-2.90345e-15
1.12235e-05
-3.12323e-15
1.12235e-05
-3.24595e-15
1.12235e-05
-4.12008e-15
1.12235e-05
-5.71538e-15
1.12235e-05
-6.26632e-15
1.12235e-05
-6.65498e-15
1.12235e-05
-7.24219e-15
1.12235e-05
-9.60622e-15
1.12235e-05
-1.12386e-14
1.12235e-05
-1.19464e-14
1.12235e-05
-1.48528e-14
1.12235e-05
-1.89904e-14
-2.16358e-14
1.12235e-05
1.12235e-05
4.94323e-20
1.12235e-05
7.06875e-20
1.12235e-05
5.17087e-20
1.12235e-05
3.46754e-20
1.12235e-05
8.21225e-20
1.12235e-05
1.71908e-19
1.12235e-05
2.14564e-19
1.12235e-05
1.9585e-19
1.12235e-05
3.57064e-19
1.12235e-05
8.53545e-19
1.12235e-05
1.28288e-18
1.12235e-05
2.09338e-18
1.12235e-05
3.03787e-18
1.12235e-05
3.22848e-18
1.12235e-05
2.1282e-18
1.12235e-05
1.46742e-18
1.12235e-05
-3.78444e-18
1.12235e-05
-6.42134e-18
1.12235e-05
-4.88729e-18
1.12235e-05
-6.31136e-18
1.12235e-05
-1.09309e-17
1.12235e-05
-1.30455e-17
1.12235e-05
-1.8106e-18
1.12235e-05
3.87596e-18
1.12235e-05
1.91691e-18
1.12235e-05
-2.38308e-17
1.12235e-05
-3.90598e-17
1.12235e-05
-1.94372e-17
1.12235e-05
-3.13134e-17
1.12235e-05
-6.40239e-17
1.12235e-05
-7.3338e-17
1.12235e-05
-3.48189e-17
1.12235e-05
-3.77993e-17
1.12235e-05
-1.16238e-16
1.12235e-05
-1.69431e-16
1.12235e-05
-2.07302e-16
1.12235e-05
-2.5338e-16
1.12235e-05
-3.56281e-16
1.12235e-05
-5.44636e-16
1.12235e-05
-7.91698e-16
1.12235e-05
-1.09017e-15
1.12235e-05
-1.34337e-15
1.12235e-05
-1.19411e-15
1.12235e-05
-1.26413e-15
1.12235e-05
-1.6932e-15
1.12235e-05
-2.22728e-15
1.12235e-05
-2.62563e-15
1.12235e-05
-2.9576e-15
1.12235e-05
-3.67418e-15
1.12235e-05
-4.13415e-15
1.12235e-05
-4.30091e-15
1.12235e-05
-5.59699e-15
1.12235e-05
-7.06726e-15
1.12235e-05
-7.08064e-15
1.12235e-05
-6.44851e-15
1.12235e-05
-1.00663e-14
1.12235e-05
-1.21264e-14
1.12235e-05
-1.49004e-14
1.12235e-05
-1.83527e-14
-2.17289e-14
1.12235e-05
1.12235e-05
-2.66948e-20
1.12235e-05
-1.00135e-19
1.12235e-05
-1.89563e-19
1.12235e-05
-2.94119e-19
1.12235e-05
-4.24919e-19
1.12235e-05
-6.3002e-19
1.12235e-05
-8.10081e-19
1.12235e-05
-9.90632e-19
1.12235e-05
-1.46568e-18
1.12235e-05
-2.84272e-18
1.12235e-05
-4.88557e-18
1.12235e-05
-7.47235e-18
1.12235e-05
-1.05045e-17
1.12235e-05
-1.28849e-17
1.12235e-05
-1.09997e-17
1.12235e-05
-6.53436e-18
1.12235e-05
-3.11438e-18
1.12235e-05
-6.65662e-19
1.12235e-05
-6.57241e-18
1.12235e-05
-1.55934e-17
1.12235e-05
-1.7561e-17
1.12235e-05
-1.84173e-17
1.12235e-05
-2.24916e-17
1.12235e-05
-3.32763e-17
1.12235e-05
-4.23382e-17
1.12235e-05
-4.5273e-17
1.12235e-05
-8.15991e-17
1.12235e-05
-1.15823e-16
1.12235e-05
-1.29935e-16
1.12235e-05
-1.48442e-16
1.12235e-05
-1.68005e-16
1.12235e-05
-1.74171e-16
1.12235e-05
-1.7436e-16
1.12235e-05
-1.68429e-16
1.12235e-05
-2.91043e-16
1.12235e-05
-3.65892e-16
1.12235e-05
-3.83834e-16
1.12235e-05
-2.32942e-16
1.12235e-05
-2.41731e-16
1.12235e-05
-5.63949e-16
1.12235e-05
-8.29048e-16
1.12235e-05
-9.0506e-16
1.12235e-05
-8.78026e-16
1.12235e-05
-9.36257e-16
1.12235e-05
-1.55768e-15
1.12235e-05
-2.44254e-15
1.12235e-05
-1.91036e-15
1.12235e-05
-1.5974e-15
1.12235e-05
-2.51144e-15
1.12235e-05
-4.12979e-15
1.12235e-05
-3.19975e-15
1.12235e-05
-2.83763e-15
1.12235e-05
-6.01473e-15
1.12235e-05
-8.21464e-15
1.12235e-05
-7.80055e-15
1.12235e-05
-1.07809e-14
1.12235e-05
-1.5939e-14
1.12235e-05
-1.81314e-14
1.12235e-05
-2.23192e-14
-2.81641e-14
1.12235e-05
1.12235e-05
-3.39475e-20
1.12235e-05
3.9612e-20
1.12235e-05
4.45222e-20
1.12235e-05
-2.74227e-20
1.12235e-05
-7.60741e-20
1.12235e-05
-2.42225e-19
1.12235e-05
-6.5829e-19
1.12235e-05
-1.3289e-18
1.12235e-05
-2.30991e-18
1.12235e-05
-3.31556e-18
1.12235e-05
-4.77553e-18
1.12235e-05
-6.45851e-18
1.12235e-05
-8.01733e-18
1.12235e-05
-8.85439e-18
1.12235e-05
-1.15128e-17
1.12235e-05
-1.62619e-17
1.12235e-05
-2.27286e-17
1.12235e-05
-2.66758e-17
1.12235e-05
-3.0038e-17
1.12235e-05
-3.14103e-17
1.12235e-05
-3.95322e-17
1.12235e-05
-5.26077e-17
1.12235e-05
-6.05775e-17
1.12235e-05
-6.50474e-17
1.12235e-05
-7.21772e-17
1.12235e-05
-8.42487e-17
1.12235e-05
-8.89965e-17
1.12235e-05
-6.9941e-17
1.12235e-05
-5.32351e-17
1.12235e-05
-7.87943e-17
1.12235e-05
-1.1967e-16
1.12235e-05
-1.16963e-16
1.12235e-05
-1.5009e-16
1.12235e-05
-2.36825e-16
1.12235e-05
-1.57584e-16
1.12235e-05
-1.31474e-16
1.12235e-05
-2.13654e-16
1.12235e-05
-3.07831e-16
1.12235e-05
-2.43598e-16
1.12235e-05
-6.78387e-17
1.12235e-05
-3.14802e-16
1.12235e-05
-5.98372e-16
1.12235e-05
-7.31067e-16
1.12235e-05
-9.29114e-16
1.12235e-05
-1.36195e-15
1.12235e-05
-1.75795e-15
1.12235e-05
-1.86902e-15
1.12235e-05
-2.4361e-15
1.12235e-05
-2.62037e-15
1.12235e-05
-3.65739e-15
1.12235e-05
-4.82933e-15
1.12235e-05
-5.65251e-15
1.12235e-05
-6.28711e-15
1.12235e-05
-1.09253e-14
1.12235e-05
-1.32766e-14
1.12235e-05
-1.16554e-14
1.12235e-05
-1.55674e-14
1.12235e-05
-2.45518e-14
1.12235e-05
-2.35446e-14
-2.60891e-14
1.12235e-05
1.12235e-05
-7.63388e-20
1.12235e-05
-8.52195e-20
1.12235e-05
-8.09975e-20
1.12235e-05
-2.55288e-19
1.12235e-05
-4.86898e-19
1.12235e-05
-7.23896e-19
1.12235e-05
-1.13375e-18
1.12235e-05
-1.85418e-18
1.12235e-05
-2.79141e-18
1.12235e-05
-4.45329e-18
1.12235e-05
-6.37552e-18
1.12235e-05
-8.1745e-18
1.12235e-05
-9.99824e-18
1.12235e-05
-1.17817e-17
1.12235e-05
-1.38922e-17
1.12235e-05
-1.46503e-17
1.12235e-05
-1.35664e-17
1.12235e-05
-1.36998e-17
1.12235e-05
-1.15439e-17
1.12235e-05
-9.27444e-18
1.12235e-05
-7.04414e-18
1.12235e-05
-1.48171e-17
1.12235e-05
-2.53499e-17
1.12235e-05
-2.74151e-17
1.12235e-05
-3.46024e-17
1.12235e-05
-6.43965e-17
1.12235e-05
-6.32296e-17
1.12235e-05
-6.66091e-17
1.12235e-05
-7.82629e-17
1.12235e-05
-1.0091e-16
1.12235e-05
-1.51026e-16
1.12235e-05
-1.82961e-16
1.12235e-05
-1.97592e-16
1.12235e-05
-1.99738e-16
1.12235e-05
-2.13341e-16
1.12235e-05
-2.64539e-16
1.12235e-05
-3.69519e-16
1.12235e-05
-4.54946e-16
1.12235e-05
-4.71115e-16
1.12235e-05
-5.56279e-16
1.12235e-05
-8.17827e-16
1.12235e-05
-1.09743e-15
1.12235e-05
-1.41787e-15
1.12235e-05
-1.89252e-15
1.12235e-05
-2.04845e-15
1.12235e-05
-2.52698e-15
1.12235e-05
-3.48509e-15
1.12235e-05
-4.31473e-15
1.12235e-05
-4.89547e-15
1.12235e-05
-6.27533e-15
1.12235e-05
-8.71291e-15
1.12235e-05
-1.00317e-14
1.12235e-05
-1.05414e-14
1.12235e-05
-1.32927e-14
1.12235e-05
-1.6439e-14
1.12235e-05
-1.71871e-14
1.12235e-05
-2.11663e-14
1.12235e-05
-2.33167e-14
1.12235e-05
-2.18337e-14
-3.17133e-14
1.12235e-05
1.12235e-05
-5.84717e-20
1.12235e-05
-1.3485e-19
1.12235e-05
-5.41175e-20
1.12235e-05
1.37881e-19
1.12235e-05
2.65333e-19
1.12235e-05
1.95903e-19
1.12235e-05
6.44804e-20
1.12235e-05
4.33125e-19
1.12235e-05
1.00129e-18
1.12235e-05
2.25421e-18
1.12235e-05
3.58621e-18
1.12235e-05
4.78261e-18
1.12235e-05
5.93577e-18
1.12235e-05
6.81032e-18
1.12235e-05
7.35548e-18
1.12235e-05
8.165e-18
1.12235e-05
8.73032e-18
1.12235e-05
5.89555e-18
1.12235e-05
-2.53639e-18
1.12235e-05
-9.6452e-18
1.12235e-05
-1.66606e-17
1.12235e-05
-1.32358e-17
1.12235e-05
-8.25442e-18
1.12235e-05
-1.45807e-17
1.12235e-05
-2.21122e-17
1.12235e-05
-9.38843e-19
1.12235e-05
-4.46895e-18
1.12235e-05
-3.9536e-17
1.12235e-05
-6.1243e-17
1.12235e-05
-4.87462e-17
1.12235e-05
-9.92879e-17
1.12235e-05
-2.14565e-16
1.12235e-05
-2.40801e-16
1.12235e-05
-1.92733e-16
1.12235e-05
-2.23092e-16
1.12235e-05
-2.95021e-16
1.12235e-05
-3.22287e-16
1.12235e-05
-4.06092e-16
1.12235e-05
-4.96353e-16
1.12235e-05
-6.6839e-16
1.12235e-05
-8.0231e-16
1.12235e-05
-7.53726e-16
1.12235e-05
-8.91315e-16
1.12235e-05
-1.72752e-15
1.12235e-05
-2.47169e-15