/*--------------------------------*- C++ -*----------------------------------*\
  =========                 |
  \\      /  F ield         | OpenFOAM: The Open Source CFD Toolbox
   \\    /   O peration     | Website:  https://openfoam.org
    \\  /    A nd           | Version:  9
     \\/     M anipulation  |
\*---------------------------------------------------------------------------*/
FoamFile
{
    format      ascii;
    class       volVectorField;
    location    "0.002";
    object      U;
}
// * * * * * * * * * * * * * * * * * * * * * * * * * * * * * * * * * * * * * //

dimensions      [0 1 -1 0 0 0 0];

internalField   nonuniform List<vector> 
36400
(
(165.65 2.31183e-13 0)
(165.65 1.29687e-12 0)
(165.65 1.18719e-12 0)
(165.65 4.18003e-13 0)
(165.65 -2.58707e-13 0)
(165.65 -1.66072e-12 0)
(165.65 -4.01323e-12 0)
(165.65 -6.1806e-12 0)
(165.65 -6.68315e-12 0)
(165.65 -4.94742e-12 0)
(165.65 -5.78729e-12 0)
(165.65 -3.64216e-12 0)
(165.65 -2.83319e-12 0)
(165.65 -8.23682e-12 0)
(165.65 -2.43208e-11 0)
(165.65 -4.27316e-11 0)
(165.65 -4.7203e-11 0)
(165.65 -3.92955e-11 0)
(165.65 -5.00179e-11 0)
(165.65 -8.58315e-11 0)
(165.65 -1.46259e-10 0)
(165.65 -1.33181e-10 0)
(165.65 -1.35659e-10 0)
(165.65 -9.87196e-11 0)
(165.65 -6.95268e-11 0)
(165.65 -9.43572e-11 0)
(165.65 -1.86158e-10 0)
(165.65 -3.68896e-10 0)
(165.65 -4.23991e-10 0)
(165.65 -3.57395e-10 0)
(165.65 -3.5388e-10 0)
(165.65 -2.81654e-10 0)
(165.65 -3.3111e-10 0)
(165.65 -4.86962e-10 0)
(165.65 -4.9537e-10 0)
(165.65 -3.12974e-10 0)
(165.65 3.50381e-10 0)
(165.65 4.62139e-10 0)
(165.65 -6.75614e-11 0)
(165.65 -7.73252e-11 0)
(165.65 2.46723e-10 0)
(165.65 1.4707e-09 0)
(165.65 1.94866e-09 0)
(165.65 1.6011e-09 0)
(165.65 1.92763e-09 0)
(165.65 2.21051e-09 0)
(165.65 2.18885e-09 0)
(165.65 3.35535e-09 0)
(165.65 4.25573e-09 0)
(165.65 4.55394e-09 0)
(165.65 5.59595e-09 0)
(165.65 4.99371e-09 0)
(165.65 4.48892e-09 0)
(165.65 1.70808e-09 0)
(165.65 2.44176e-09 0)
(165.65 -2.97509e-09 0)
(165.65 -1.98578e-08 0)
(165.65 -2.16482e-08 0)
(165.65 -3.19177e-10 0)
(165.65 1.55757e-08 0)
(165.65 -1.86401e-13 0)
(165.65 8.3512e-13 0)
(165.65 1.48781e-12 0)
(165.65 1.25001e-12 0)
(165.65 -6.70186e-13 0)
(165.65 -3.34458e-12 0)
(165.65 -7.83815e-12 0)
(165.65 -1.24578e-11 0)
(165.65 -1.64419e-11 0)
(165.65 -1.9174e-11 0)
(165.65 -2.0768e-11 0)
(165.65 -2.59558e-11 0)
(165.65 -3.58843e-11 0)
(165.65 -4.70003e-11 0)
(165.65 -6.80337e-11 0)
(165.65 -1.04918e-10 0)
(165.65 -1.29217e-10 0)
(165.65 -1.38139e-10 0)
(165.65 -1.61106e-10 0)
(165.65 -2.07847e-10 0)
(165.65 -2.92637e-10 0)
(165.65 -3.29901e-10 0)
(165.65 -3.50472e-10 0)
(165.65 -3.49119e-10 0)
(165.65 -3.48719e-10 0)
(165.65 -4.12005e-10 0)
(165.65 -5.63673e-10 0)
(165.65 -8.19581e-10 0)
(165.65 -8.87675e-10 0)
(165.65 -8.52556e-10 0)
(165.65 -9.58061e-10 0)
(165.65 -1.15462e-09 0)
(165.65 -1.07623e-09 0)
(165.65 -1.11404e-09 0)
(165.65 -1.46743e-09 0)
(165.65 -1.92086e-09 0)
(165.65 -1.49171e-09 0)
(165.65 -1.31813e-09 0)
(165.65 -2.48413e-09 0)
(165.65 -3.35195e-09 0)
(165.65 -3.66742e-09 0)
(165.65 -3.49034e-09 0)
(165.65 -4.32258e-09 0)
(165.65 -5.43459e-09 0)
(165.65 -6.0643e-09 0)
(165.65 -6.79133e-09 0)
(165.65 -7.9447e-09 0)
(165.65 -9.1299e-09 0)
(165.65 -9.37345e-09 0)
(165.65 -9.35181e-09 0)
(165.65 -9.08509e-09 0)
(165.65 -9.22827e-09 0)
(165.65 -8.67057e-09 0)
(165.65 -1.07436e-08 0)
(165.65 -1.36894e-08 0)
(165.65 -2.52992e-09 0)
(165.65 -1.8029e-09 0)
(165.65 -8.9769e-09 0)
(165.65 5.73057e-09 0)
(165.65 1.62288e-08 0)
(165.65 -2.04404e-13 0)
(165.65 3.66361e-13 0)
(165.65 1.06783e-12 0)
(165.65 1.91544e-12 0)
(165.65 1.26125e-12 0)
(165.65 2.71829e-13 0)
(165.65 -7.21507e-13 0)
(165.65 -2.27797e-12 0)
(165.65 -7.80051e-12 0)
(165.65 -1.62472e-11 0)
(165.65 -2.74657e-11 0)
(165.65 -4.62926e-11 0)
(165.65 -6.89745e-11 0)
(165.65 -9.24119e-11 0)
(165.65 -1.07758e-10 0)
(165.65 -1.20242e-10 0)
(165.65 -1.46084e-10 0)
(165.65 -1.68512e-10 0)
(165.65 -1.87526e-10 0)
(165.65 -2.05208e-10 0)
(165.65 -2.43175e-10 0)
(165.65 -3.03489e-10 0)
(165.65 -3.23545e-10 0)
(165.65 -3.63039e-10 0)
(165.65 -4.0688e-10 0)
(165.65 -5.07819e-10 0)
(165.65 -6.56452e-10 0)
(165.65 -6.45079e-10 0)
(165.65 -6.86537e-10 0)
(165.65 -9.80579e-10 0)
(165.65 -1.32215e-09 0)
(165.65 -1.41824e-09 0)
(165.65 -1.32442e-09 0)
(165.65 -1.73012e-09 0)
(165.65 -2.42993e-09 0)
(165.65 -2.72841e-09 0)
(165.65 -2.89492e-09 0)
(165.65 -2.90315e-09 0)
(165.65 -3.55355e-09 0)
(165.65 -4.12578e-09 0)
(165.65 -4.6024e-09 0)
(165.65 -5.92586e-09 0)
(165.65 -5.72722e-09 0)
(165.65 -4.99878e-09 0)
(165.65 -6.16222e-09 0)
(165.65 -8.80343e-09 0)
(165.65 -7.36772e-09 0)
(165.65 -5.67524e-09 0)
(165.65 -8.88531e-09 0)
(165.65 -9.78959e-09 0)
(165.65 -9.27482e-09 0)
(165.65 -8.0262e-09 0)
(165.65 -7.97229e-09 0)
(165.65 -6.76749e-09 0)
(165.65 -1.02801e-08 0)
(165.65 -9.6179e-10 0)
(165.65 1.02029e-08 0)
(165.65 2.52431e-09 0)
(165.65 -3.30836e-08 0)
(165.65 -6.24587e-08 0)
(165.65 1.84923e-13 0)
(165.65 1.61674e-13 0)
(165.65 1.99074e-13 0)
(165.65 9.20158e-13 0)
(165.65 2.16241e-12 0)
(165.65 3.49603e-12 0)
(165.65 3.71586e-12 0)
(165.65 3.04912e-12 0)
(165.65 1.09087e-12 0)
(165.65 -2.9788e-12 0)
(165.65 -8.08887e-12 0)
(165.65 -9.62972e-12 0)
(165.65 -1.04912e-11 0)
(165.65 -2.08648e-11 0)
(165.65 -3.64444e-11 0)
(165.65 -3.93116e-11 0)
(165.65 -5.97883e-11 0)
(165.65 -9.13626e-11 0)
(165.65 -1.0876e-10 0)
(165.65 -1.10744e-10 0)
(165.65 -9.0612e-11 0)
(165.65 -1.27371e-10 0)
(165.65 -1.93201e-10 0)
(165.65 -2.50453e-10 0)
(165.65 -3.04922e-10 0)
(165.65 -3.50916e-10 0)
(165.65 -3.1966e-10 0)
(165.65 -1.86159e-10 0)
(165.65 -2.68801e-10 0)
(165.65 -5.68619e-10 0)
(165.65 -6.27409e-10 0)
(165.65 -3.79427e-10 0)
(165.65 -3.81428e-10 0)
(165.65 -8.59538e-10 0)
(165.65 -8.87747e-10 0)
(165.65 -4.60585e-10 0)
(165.65 -5.66217e-10 0)
(165.65 -1.03587e-09 0)
(165.65 -2.98945e-10 0)
(165.65 2.51846e-10 0)
(165.65 -3.21364e-10 0)
(165.65 -7.84657e-10 0)
(165.65 1.44481e-09 0)
(165.65 2.74148e-09 0)
(165.65 2.25346e-09 0)
(165.65 -1.04046e-09 0)
(165.65 1.48295e-10 0)
(165.65 6.09847e-09 0)
(165.65 8.281e-09 0)
(165.65 7.91955e-09 0)
(165.65 5.63823e-09 0)
(165.65 1.22703e-08 0)
(165.65 1.21218e-08 0)
(165.65 7.36113e-09 0)
(165.65 4.27954e-09 0)
(165.65 1.59065e-09 0)
(165.65 -1.15892e-08 0)
(165.65 -3.45636e-08 0)
(165.65 -6.20743e-08 0)
(165.65 -7.81364e-08 0)
(165.65 -3.84465e-14 0)
(165.65 -8.37866e-13 0)
(165.65 -8.18418e-13 0)
(165.65 -1.08544e-12 0)
(165.65 -1.24471e-12 0)
(165.65 -1.72077e-12 0)
(165.65 -3.62507e-12 0)
(165.65 -6.59876e-12 0)
(165.65 -7.40662e-12 0)
(165.65 -8.95705e-12 0)
(165.65 -1.18516e-11 0)
(165.65 -1.2925e-11 0)
(165.65 -1.44857e-11 0)
(165.65 -1.73774e-11 0)
(165.65 -2.79846e-11 0)
(165.65 -5.18133e-11 0)
(165.65 -6.82811e-11 0)
(165.65 -7.65408e-11 0)
(165.65 -7.84761e-11 0)
(165.65 -6.33151e-11 0)
(165.65 5.25083e-12 0)
(165.65 4.46498e-11 0)
(165.65 4.01938e-12 0)
(165.65 -1.85959e-11 0)
(165.65 -1.69928e-11 0)
(165.65 -2.61981e-11 0)
(165.65 5.37563e-11 0)
(165.65 1.35843e-10 0)
(165.65 1.77321e-10 0)
(165.65 2.85993e-10 0)
(165.65 5.22701e-10 0)
(165.65 6.09168e-10 0)
(165.65 5.48419e-10 0)
(165.65 8.65737e-10 0)
(165.65 1.30175e-09 0)
(165.65 9.84631e-10 0)
(165.65 2.16698e-10 0)
(165.65 1.50515e-10 0)
(165.65 8.28216e-10 0)
(165.65 6.4317e-10 0)
(165.65 2.46287e-11 0)
(165.65 2.46521e-10 0)
(165.65 -1.40535e-09 0)
(165.65 -5.46455e-09 0)
(165.65 -7.8621e-09 0)
(165.65 -7.95883e-09 0)
(165.65 -1.01033e-08 0)
(165.65 -1.25528e-08 0)
(165.65 -1.09785e-08 0)
(165.65 -1.21264e-08 0)
(165.65 -1.08979e-08 0)
(165.65 -6.15512e-09 0)
(165.65 -1.46761e-08 0)
(165.65 -2.55901e-08 0)
(165.65 -2.09352e-08 0)
(165.65 -2.14184e-08 0)
(165.65 -4.73547e-08 0)
(165.65 -7.2063e-08 0)
(165.65 -6.51814e-08 0)
(165.65 -5.54335e-08 0)
(165.65 -3.70397e-13 0)
(165.65 -1.73016e-12 0)
(165.65 -2.92948e-12 0)
(165.65 -5.64335e-12 0)
(165.65 -9.50662e-12 0)
(165.65 -1.30031e-11 0)
(165.65 -1.59073e-11 0)
(165.65 -2.08308e-11 0)
(165.65 -2.5941e-11 0)
(165.65 -3.37823e-11 0)
(165.65 -4.47119e-11 0)
(165.65 -6.65217e-11 0)
(165.65 -9.13092e-11 0)
(165.65 -1.05796e-10 0)
(165.65 -1.11632e-10 0)
(165.65 -1.14985e-10 0)
(165.65 -1.09471e-10 0)
(165.65 -1.04504e-10 0)
(165.65 -1.47095e-10 0)
(165.65 -1.7917e-10 0)
(165.65 -1.78642e-10 0)
(165.65 -1.83657e-10 0)
(165.65 -2.18072e-10 0)
(165.65 -2.28843e-10 0)
(165.65 -2.53492e-10 0)
(165.65 -3.39102e-10 0)
(165.65 -5.74282e-10 0)
(165.65 -7.77238e-10 0)
(165.65 -8.43339e-10 0)
(165.65 -8.62296e-10 0)
(165.65 -1.36529e-09 0)
(165.65 -1.8745e-09 0)
(165.65 -2.121e-09 0)
(165.65 -2.0476e-09 0)
(165.65 -2.52268e-09 0)
(165.65 -3.7933e-09 0)
(165.65 -4.30861e-09 0)
(165.65 -4.07371e-09 0)
(165.65 -4.59915e-09 0)
(165.65 -6.53489e-09 0)
(165.65 -7.17666e-09 0)
(165.65 -7.02479e-09 0)
(165.65 -9.94759e-09 0)
(165.65 -1.3343e-08 0)
(165.65 -1.39787e-08 0)
(165.65 -1.23716e-08 0)
(165.65 -1.63839e-08 0)
(165.65 -2.17619e-08 0)
(165.65 -2.68315e-08 0)
(165.65 -3.61078e-08 0)
(165.65 -3.99383e-08 0)
(165.65 -4.58262e-08 0)
(165.65 -6.0956e-08 0)
(165.65 -7.51022e-08 0)
(165.65 -7.39721e-08 0)
(165.65 -8.56646e-08 0)
(165.65 -1.12696e-07 0)
(165.65 -1.13836e-07 0)
(165.65 -1.11661e-07 0)
(165.65 -1.46042e-07 0)
(165.65 1.15471e-13 0)
(165.65 6.53416e-13 0)
(165.65 2.84136e-13 0)
(165.65 -5.81474e-13 0)
(165.65 -2.96311e-12 0)
(165.65 -4.77742e-12 0)
(165.65 -7.41617e-12 0)
(165.65 -1.53353e-11 0)
(165.65 -2.8087e-11 0)
(165.65 -4.24981e-11 0)
(165.65 -5.66658e-11 0)
(165.65 -5.95688e-11 0)
(165.65 -5.33915e-11 0)
(165.65 -4.73297e-11 0)
(165.65 -4.26431e-11 0)
(165.65 -3.50728e-11 0)
(165.65 -5.0157e-11 0)
(165.65 -9.14256e-11 0)
(165.65 -1.73979e-10 0)
(165.65 -2.62275e-10 0)
(165.65 -3.3476e-10 0)
(165.65 -4.06617e-10 0)
(165.65 -4.36666e-10 0)
(165.65 -4.93989e-10 0)
(165.65 -5.9212e-10 0)
(165.65 -7.37224e-10 0)
(165.65 -1.0052e-09 0)
(165.65 -1.23381e-09 0)
(165.65 -1.42391e-09 0)
(165.65 -1.72134e-09 0)
(165.65 -2.36974e-09 0)
(165.65 -2.81439e-09 0)
(165.65 -3.06548e-09 0)
(165.65 -3.68123e-09 0)
(165.65 -4.86066e-09 0)
(165.65 -5.32916e-09 0)
(165.65 -5.49901e-09 0)
(165.65 -6.97291e-09 0)
(165.65 -9.20046e-09 0)
(165.65 -1.02035e-08 0)
(165.65 -1.08856e-08 0)
(165.65 -1.25362e-08 0)
(165.65 -1.39523e-08 0)
(165.65 -1.23242e-08 0)
(165.65 -1.10326e-08 0)
(165.65 -1.29724e-08 0)
(165.65 -1.58819e-08 0)
(165.65 -1.62111e-08 0)
(165.65 -2.31165e-08 0)
(165.65 -3.09244e-08 0)
(165.65 -3.87899e-08 0)
(165.65 -5.45278e-08 0)
(165.65 -6.13449e-08 0)
(165.65 -6.6362e-08 0)
(165.65 -9.42563e-08 0)
(165.65 -1.23533e-07 0)
(165.65 -1.21321e-07 0)
(165.65 -1.31824e-07 0)
(165.65 -1.93509e-07 0)
(165.65 -2.28277e-07 0)
(165.65 9.00025e-13 0)
(165.65 2.6272e-12 0)
(165.65 3.58257e-12 0)
(165.65 4.5408e-12 0)
(165.65 5.27628e-12 0)
(165.65 4.96856e-12 0)
(165.65 1.92007e-12 0)
(165.65 -3.76015e-12 0)
(165.65 -1.06367e-11 0)
(165.65 -1.93114e-11 0)
(165.65 -2.59505e-11 0)
(165.65 -2.2679e-11 0)
(165.65 -1.32824e-11 0)
(165.65 -8.59469e-12 0)
(165.65 -7.36818e-13 0)
(165.65 -1.72128e-11 0)
(165.65 -2.85046e-11 0)
(165.65 -3.21842e-11 0)
(165.65 -2.23063e-14 0)
(165.65 1.1788e-11 0)
(165.65 8.28308e-12 0)
(165.65 8.74652e-12 0)
(165.65 -1.23998e-12 0)
(165.65 -2.33757e-11 0)
(165.65 -4.34797e-11 0)
(165.65 -1.09303e-10 0)
(165.65 -1.5261e-10 0)
(165.65 -1.64609e-10 0)
(165.65 -2.84196e-10 0)
(165.65 -4.79923e-10 0)
(165.65 -7.55154e-10 0)
(165.65 -1.09044e-09 0)
(165.65 -1.55028e-09 0)
(165.65 -2.02273e-09 0)
(165.65 -2.25718e-09 0)
(165.65 -2.06944e-09 0)
(165.65 -2.6083e-09 0)
(165.65 -3.94978e-09 0)
(165.65 -6.50978e-09 0)
(165.65 -8.07305e-09 0)
(165.65 -9.34844e-09 0)
(165.65 -1.12304e-08 0)
(165.65 -1.1411e-08 0)
(165.65 -1.3227e-08 0)
(165.65 -2.18099e-08 0)
(165.65 -2.81832e-08 0)
(165.65 -3.02197e-08 0)
(165.65 -3.33793e-08 0)
(165.65 -3.83215e-08 0)
(165.65 -4.30433e-08 0)
(165.65 -5.85945e-08 0)
(165.65 -7.13041e-08 0)
(165.65 -7.4591e-08 0)
(165.65 -8.90619e-08 0)
(165.65 -1.20984e-07 0)
(165.65 -1.37222e-07 0)
(165.65 -1.51598e-07 0)
(165.65 -2.01033e-07 0)
(165.65 -2.38219e-07 0)
(165.65 -2.71684e-07 0)
(165.65 2.432e-13 0)
(165.65 5.12178e-13 0)
(165.65 6.75241e-13 0)
(165.65 5.35085e-13 0)
(165.65 -5.42591e-13 0)
(165.65 -1.47868e-12 0)
(165.65 -4.85449e-12 0)
(165.65 -8.90859e-12 0)
(165.65 -1.14805e-11 0)
(165.65 -1.73311e-11 0)
(165.65 -2.45803e-11 0)
(165.65 -3.60653e-11 0)
(165.65 -5.48201e-11 0)
(165.65 -8.01835e-11 0)
(165.65 -9.27297e-11 0)
(165.65 -1.11237e-10 0)
(165.65 -1.17155e-10 0)
(165.65 -1.13569e-10 0)
(165.65 -8.90048e-11 0)
(165.65 -7.74443e-11 0)
(165.65 -1.15036e-10 0)
(165.65 -2.30108e-10 0)
(165.65 -4.00439e-10 0)
(165.65 -5.1715e-10 0)
(165.65 -6.23384e-10 0)
(165.65 -6.44577e-10 0)
(165.65 -6.00225e-10 0)
(165.65 -8.56686e-10 0)
(165.65 -1.35854e-09 0)
(165.65 -1.51062e-09 0)
(165.65 -1.49659e-09 0)
(165.65 -2.17791e-09 0)
(165.65 -3.17012e-09 0)
(165.65 -3.44039e-09 0)
(165.65 -3.3412e-09 0)
(165.65 -4.41173e-09 0)
(165.65 -6.51193e-09 0)
(165.65 -6.716e-09 0)
(165.65 -6.04991e-09 0)
(165.65 -6.9116e-09 0)
(165.65 -9.99276e-09 0)
(165.65 -1.18019e-08 0)
(165.65 -1.21124e-08 0)
(165.65 -1.83125e-08 0)
(165.65 -2.50243e-08 0)
(165.65 -2.89119e-08 0)
(165.65 -3.7541e-08 0)
(165.65 -4.85472e-08 0)
(165.65 -5.29091e-08 0)
(165.65 -6.53823e-08 0)
(165.65 -8.60555e-08 0)
(165.65 -8.97957e-08 0)
(165.65 -9.94437e-08 0)
(165.65 -1.30625e-07 0)
(165.65 -1.43564e-07 0)
(165.65 -1.45818e-07 0)
(165.65 -1.86078e-07 0)
(165.65 -2.33247e-07 0)
(165.65 -2.28896e-07 0)
(165.65 -2.84432e-07 0)
(165.65 -4.20817e-14 0)
(165.65 -8.24831e-13 0)
(165.65 -1.34968e-12 0)
(165.65 -2.39611e-12 0)
(165.65 -4.35354e-12 0)
(165.65 -9.68817e-12 0)
(165.65 -1.39838e-11 0)
(165.65 -2.28973e-11 0)
(165.65 -3.46556e-11 0)
(165.65 -4.42644e-11 0)
(165.65 -5.78251e-11 0)
(165.65 -7.68253e-11 0)
(165.65 -9.42891e-11 0)
(165.65 -1.20483e-10 0)
(165.65 -1.53027e-10 0)
(165.65 -1.66016e-10 0)
(165.65 -1.89965e-10 0)
(165.65 -2.18417e-10 0)
(165.65 -2.69901e-10 0)
(165.65 -3.83127e-10 0)
(165.65 -5.31663e-10 0)
(165.65 -5.86046e-10 0)
(165.65 -6.09757e-10 0)
(165.65 -7.3115e-10 0)
(165.65 -1.00627e-09 0)
(165.65 -1.14534e-09 0)
(165.65 -1.19734e-09 0)
(165.65 -1.59341e-09 0)
(165.65 -2.04281e-09 0)
(165.65 -2.19075e-09 0)
(165.65 -2.17879e-09 0)
(165.65 -2.82684e-09 0)
(165.65 -3.34146e-09 0)
(165.65 -3.56959e-09 0)
(165.65 -3.90232e-09 0)
(165.65 -5.16633e-09 0)
(165.65 -6.62998e-09 0)
(165.65 -6.95531e-09 0)
(165.65 -6.63175e-09 0)
(165.65 -7.99572e-09 0)
(165.65 -9.52342e-09 0)
(165.65 -1.12577e-08 0)
(165.65 -1.64331e-08 0)
(165.65 -2.07055e-08 0)
(165.65 -1.89378e-08 0)
(165.65 -2.18196e-08 0)
(165.65 -3.35345e-08 0)
(165.65 -4.27656e-08 0)
(165.65 -5.05974e-08 0)
(165.65 -6.3392e-08 0)
(165.65 -7.47594e-08 0)
(165.65 -8.27915e-08 0)
(165.65 -9.47297e-08 0)
(165.65 -1.105e-07 0)
(165.65 -1.31355e-07 0)
(165.65 -1.50385e-07 0)
(165.65 -1.6738e-07 0)
(165.65 -2.04173e-07 0)
(165.65 -2.45322e-07 0)
(165.65 -2.69636e-07 0)
(165.65 -1.05798e-14 0)
(165.65 -7.45891e-13 0)
(165.65 -1.58358e-12 0)
(165.65 -2.07178e-12 0)
(165.65 -2.76333e-12 0)
(165.65 -5.47085e-12 0)
(165.65 -8.47228e-12 0)
(165.65 -8.23179e-12 0)
(165.65 -7.83463e-12 0)
(165.65 -6.51375e-12 0)
(165.65 -6.77417e-12 0)
(165.65 -1.41751e-11 0)
(165.65 -3.09631e-11 0)
(165.65 -5.16262e-11 0)
(165.65 -9.84244e-11 0)
(165.65 -1.49357e-10 0)
(165.65 -2.0934e-10 0)
(165.65 -2.84978e-10 0)
(165.65 -3.58785e-10 0)
(165.65 -4.2751e-10 0)
(165.65 -4.74554e-10 0)
(165.65 -4.46565e-10 0)
(165.65 -3.91613e-10 0)
(165.65 -5.27247e-10 0)
(165.65 -7.70437e-10 0)
(165.65 -8.95991e-10 0)
(165.65 -1.05671e-09 0)
(165.65 -1.34697e-09 0)
(165.65 -1.38389e-09 0)
(165.65 -1.4764e-09 0)
(165.65 -1.91474e-09 0)
(165.65 -2.21125e-09 0)
(165.65 -1.90527e-09 0)
(165.65 -2.23862e-09 0)
(165.65 -3.41816e-09 0)
(165.65 -3.58922e-09 0)
(165.65 -2.74196e-09 0)
(165.65 -4.27068e-09 0)
(165.65 -6.72569e-09 0)
(165.65 -7.77578e-09 0)
(165.65 -7.81238e-09 0)
(165.65 -1.09656e-08 0)
(165.65 -1.40122e-08 0)
(165.65 -1.30725e-08 0)
(165.65 -1.64691e-08 0)
(165.65 -2.54157e-08 0)
(165.65 -2.47435e-08 0)
(165.65 -2.48332e-08 0)
(165.65 -3.6662e-08 0)
(165.65 -4.63826e-08 0)
(165.65 -4.32061e-08 0)
(165.65 -5.40939e-08 0)
(165.65 -8.41373e-08 0)
(165.65 -9.24026e-08 0)
(165.65 -9.68388e-08 0)
(165.65 -1.29051e-07 0)
(165.65 -1.76198e-07 0)
(165.65 -1.95314e-07 0)
(165.65 -2.36839e-07 0)
(165.65 -2.86697e-07 0)
(165.65 -1.3974e-13 0)
(165.65 -2.83805e-13 0)
(165.65 2.29522e-13 0)
(165.65 2.23782e-12 0)
(165.65 4.95034e-12 0)
(165.65 7.71998e-12 0)
(165.65 1.00112e-11 0)
(165.65 1.72967e-11 0)
(165.65 2.72012e-11 0)
(165.65 3.47428e-11 0)
(165.65 3.86403e-11 0)
(165.65 3.87481e-11 0)
(165.65 2.89005e-11 0)
(165.65 2.47481e-11 0)
(165.65 1.74102e-11 0)
(165.65 -1.6119e-11 0)
(165.65 -4.40351e-11 0)
(165.65 -8.31675e-11 0)
(165.65 -1.22061e-10 0)
(165.65 -1.31875e-10 0)
(165.65 -1.89808e-10 0)
(165.65 -3.93036e-10 0)
(165.65 -5.6015e-10 0)
(165.65 -6.9926e-10 0)
(165.65 -7.35798e-10 0)
(165.65 -8.82666e-10 0)
(165.65 -1.24756e-09 0)
(165.65 -1.72579e-09 0)
(165.65 -1.97929e-09 0)
(165.65 -2.2851e-09 0)
(165.65 -2.42083e-09 0)
(165.65 -1.97955e-09 0)
(165.65 -1.84681e-09 0)
(165.65 -2.56842e-09 0)
(165.65 -3.94663e-09 0)
(165.65 -3.94332e-09 0)
(165.65 -4.0354e-09 0)
(165.65 -6.52735e-09 0)
(165.65 -7.95247e-09 0)
(165.65 -7.51283e-09 0)
(165.65 -1.02356e-08 0)
(165.65 -1.50979e-08 0)
(165.65 -1.46655e-08 0)
(165.65 -1.38407e-08 0)
(165.65 -1.90183e-08 0)
(165.65 -2.84067e-08 0)
(165.65 -2.64242e-08 0)
(165.65 -2.51298e-08 0)
(165.65 -2.66583e-08 0)
(165.65 -2.84897e-08 0)
(165.65 -3.16259e-08 0)
(165.65 -3.87061e-08 0)
(165.65 -5.82094e-08 0)
(165.65 -7.70048e-08 0)
(165.65 -7.25105e-08 0)
(165.65 -9.90373e-08 0)
(165.65 -1.54148e-07 0)
(165.65 -1.47884e-07 0)
(165.65 -1.84351e-07 0)
(165.65 -2.65827e-07 0)
(165.65 -5.42083e-13 0)
(165.65 -1.00984e-12 0)
(165.65 -2.95374e-13 0)
(165.65 1.16714e-14 0)
(165.65 3.69528e-13 0)
(165.65 1.24187e-12 0)
(165.65 2.43935e-12 0)
(165.65 2.18794e-12 0)
(165.65 -3.89381e-12 0)
(165.65 -1.11135e-11 0)
(165.65 -1.28316e-11 0)
(165.65 -1.60239e-11 0)
(165.65 -1.10229e-11 0)
(165.65 5.50476e-12 0)
(165.65 3.03537e-11 0)
(165.65 3.41757e-11 0)
(165.65 9.29714e-12 0)
(165.65 -5.8738e-13 0)
(165.65 -3.10592e-11 0)
(165.65 -1.52231e-10 0)
(165.65 -2.79362e-10 0)
(165.65 -3.56388e-10 0)
(165.65 -4.22101e-10 0)
(165.65 -3.75153e-10 0)
(165.65 -2.57701e-10 0)
(165.65 -3.44686e-10 0)
(165.65 -6.51983e-10 0)
(165.65 -6.66318e-10 0)
(165.65 -6.3375e-10 0)
(165.65 -9.25533e-10 0)
(165.65 -1.36108e-09 0)
(165.65 -1.44377e-09 0)
(165.65 -1.88731e-09 0)
(165.65 -2.6305e-09 0)
(165.65 -3.64648e-09 0)
(165.65 -4.87129e-09 0)
(165.65 -6.12796e-09 0)
(165.65 -6.46686e-09 0)
(165.65 -8.35707e-09 0)
(165.65 -1.4263e-08 0)
(165.65 -1.82866e-08 0)
(165.65 -1.92988e-08 0)
(165.65 -2.13299e-08 0)
(165.65 -2.38274e-08 0)
(165.65 -2.24411e-08 0)
(165.65 -1.81619e-08 0)
(165.65 -2.45352e-08 0)
(165.65 -3.69925e-08 0)
(165.65 -3.40028e-08 0)
(165.65 -3.08862e-08 0)
(165.65 -4.93567e-08 0)
(165.65 -5.69387e-08 0)
(165.65 -4.96484e-08 0)
(165.65 -6.79791e-08 0)
(165.65 -8.43255e-08 0)
(165.65 -9.49078e-08 0)
(165.65 -1.01364e-07 0)
(165.65 -1.08515e-07 0)
(165.65 -1.40401e-07 0)
(165.65 -1.74813e-07 0)
(165.65 2.3674e-15 0)
(165.65 -3.59881e-13 0)
(165.65 -6.68595e-13 0)
(165.65 -1.43571e-12 0)
(165.65 -1.7714e-12 0)
(165.65 4.01797e-13 0)
(165.65 3.63913e-12 0)
(165.65 6.84086e-12 0)
(165.65 2.90362e-12 0)
(165.65 -5.80685e-12 0)
(165.65 -1.50698e-11 0)
(165.65 -3.00291e-11 0)
(165.65 -5.45632e-11 0)
(165.65 -9.27908e-11 0)
(165.65 -1.4285e-10 0)
(165.65 -1.68891e-10 0)
(165.65 -2.24834e-10 0)
(165.65 -2.90447e-10 0)
(165.65 -3.78687e-10 0)
(165.65 -5.4408e-10 0)
(165.65 -6.19231e-10 0)
(165.65 -5.89735e-10 0)
(165.65 -6.18919e-10 0)
(165.65 -6.4289e-10 0)
(165.65 -6.7297e-10 0)
(165.65 -7.75685e-10 0)
(165.65 -1.03057e-09 0)
(165.65 -9.38313e-10 0)
(165.65 -8.39806e-10 0)
(165.65 -9.51987e-10 0)
(165.65 -1.49381e-09 0)
(165.65 -2.6889e-09 0)
(165.65 -3.47515e-09 0)
(165.65 -3.83534e-09 0)
(165.65 -4.45486e-09 0)
(165.65 -6.39838e-09 0)
(165.65 -7.15895e-09 0)
(165.65 -6.55678e-09 0)
(165.65 -8.33863e-09 0)
(165.65 -1.1928e-08 0)
(165.65 -1.15533e-08 0)
(165.65 -9.0568e-09 0)
(165.65 -1.21118e-08 0)
(165.65 -1.87671e-08 0)
(165.65 -1.80056e-08 0)
(165.65 -1.04187e-08 0)
(165.65 -1.18549e-08 0)
(165.65 -2.47815e-08 0)
(165.65 -3.3275e-08 0)
(165.65 -3.52863e-08 0)
(165.65 -4.5743e-08 0)
(165.65 -6.43824e-08 0)
(165.65 -6.55847e-08 0)
(165.65 -6.88111e-08 0)
(165.65 -1.1535e-07 0)
(165.65 -1.36495e-07 0)
(165.65 -1.21041e-07 0)
(165.65 -1.73801e-07 0)
(165.65 -2.66126e-07 0)
(165.65 -2.48959e-07 0)
(165.65 3.54766e-14 0)
(165.65 -3.03141e-13 0)
(165.65 -6.72842e-13 0)
(165.65 3.04823e-13 0)
(165.65 3.00475e-12 0)
(165.65 6.03411e-12 0)
(165.65 9.90551e-12 0)
(165.65 1.62166e-11 0)
(165.65 2.25712e-11 0)
(165.65 2.56496e-11 0)
(165.65 2.30903e-11 0)
(165.65 1.20567e-11 0)
(165.65 -1.97994e-11 0)
(165.65 -7.64032e-11 0)
(165.65 -1.54702e-10 0)
(165.65 -2.4379e-10 0)
(165.65 -2.56012e-10 0)
(165.65 -2.84689e-10 0)
(165.65 -2.90847e-10 0)
(165.65 -2.0179e-10 0)
(165.65 -1.36901e-10 0)
(165.65 -2.00051e-10 0)
(165.65 -4.25656e-10 0)
(165.65 -5.91626e-10 0)
(165.65 -7.25285e-10 0)
(165.65 -8.3577e-10 0)
(165.65 -8.62922e-10 0)
(165.65 -1.24977e-09 0)
(165.65 -1.68545e-09 0)
(165.65 -1.92906e-09 0)
(165.65 -2.01156e-09 0)
(165.65 -3.0486e-09 0)
(165.65 -4.22795e-09 0)
(165.65 -4.62664e-09 0)
(165.65 -4.20808e-09 0)
(165.65 -4.48761e-09 0)
(165.65 -6.87402e-09 0)
(165.65 -9.82182e-09 0)
(165.65 -9.39785e-09 0)
(165.65 -6.11192e-09 0)
(165.65 -4.51795e-09 0)
(165.65 -5.6873e-09 0)
(165.65 -1.14764e-08 0)
(165.65 -1.56786e-08 0)
(165.65 -1.93145e-08 0)
(165.65 -2.69562e-08 0)
(165.65 -3.83866e-08 0)
(165.65 -3.98853e-08 0)
(165.65 -4.71612e-08 0)
(165.65 -6.06781e-08 0)
(165.65 -8.03482e-08 0)
(165.65 -9.63235e-08 0)
(165.65 -1.04882e-07 0)
(165.65 -1.12699e-07 0)
(165.65 -1.70948e-07 0)
(165.65 -1.99402e-07 0)
(165.65 -1.91193e-07 0)
(165.65 -2.48916e-07 0)
(165.65 -3.63486e-07 0)
(165.65 -3.74637e-07 0)
(165.65 -8.81875e-14 0)
(165.65 -1.41692e-14 0)
(165.65 -2.67912e-13 0)
(165.65 3.47394e-13 0)
(165.65 1.28794e-12 0)
(165.65 2.6655e-12 0)
(165.65 4.09507e-12 0)
(165.65 6.06144e-12 0)
(165.65 1.09496e-11 0)
(165.65 1.80183e-11 0)
(165.65 2.76128e-11 0)
(165.65 4.33789e-11 0)
(165.65 5.65575e-11 0)
(165.65 5.52657e-11 0)
(165.65 2.22535e-11 0)
(165.65 -4.43863e-11 0)
(165.65 -1.18475e-10 0)
(165.65 -1.68261e-10 0)
(165.65 -1.16078e-10 0)
(165.65 1.84543e-11 0)
(165.65 8.44612e-11 0)
(165.65 1.24281e-10 0)
(165.65 1.54053e-10 0)
(165.65 1.62441e-10 0)
(165.65 1.12511e-10 0)
(165.65 -4.85758e-11 0)
(165.65 1.82676e-10 0)
(165.65 3.82481e-10 0)
(165.65 1.41877e-11 0)
(165.65 -3.52721e-10 0)
(165.65 -2.50688e-10 0)
(165.65 1.3482e-10 0)
(165.65 -7.16454e-10 0)
(165.65 -1.89291e-09 0)
(165.65 -1.95238e-09 0)
(165.65 -1.78604e-09 0)
(165.65 -4.3849e-09 0)
(165.65 -9.0578e-09 0)
(165.65 -1.11575e-08 0)
(165.65 -1.1997e-08 0)
(165.65 -1.53884e-08 0)
(165.65 -1.92982e-08 0)
(165.65 -2.07436e-08 0)
(165.65 -1.96597e-08 0)
(165.65 -2.42012e-08 0)
(165.65 -3.5934e-08 0)
(165.65 -5.35717e-08 0)
(165.65 -5.67249e-08 0)
(165.65 -6.2696e-08 0)
(165.65 -7.66598e-08 0)
(165.65 -9.71292e-08 0)
(165.65 -1.09448e-07 0)
(165.65 -1.198e-07 0)
(165.65 -1.20232e-07 0)
(165.65 -1.31132e-07 0)
(165.65 -1.75817e-07 0)
(165.65 -1.94694e-07 0)
(165.65 -2.25541e-07 0)
(165.65 -2.81398e-07 0)
(165.65 -3.35273e-07 0)
(165.65 7.53801e-14 0)
(165.65 -2.61384e-13 0)
(165.65 -1.15372e-12 0)
(165.65 -2.30132e-12 0)
(165.65 -3.17158e-12 0)
(165.65 -4.08921e-12 0)
(165.65 -4.85142e-12 0)
(165.65 -6.18399e-12 0)
(165.65 -8.14089e-12 0)
(165.65 -1.55606e-11 0)
(165.65 -2.98993e-11 0)
(165.65 -4.55037e-11 0)
(165.65 -6.17138e-11 0)
(165.65 -7.42518e-11 0)
(165.65 -4.77712e-11 0)
(165.65 8.31066e-12 0)
(165.65 3.20647e-11 0)
(165.65 3.7151e-11 0)
(165.65 -5.07387e-11 0)
(165.65 -1.5877e-10 0)
(165.65 -2.14951e-10 0)
(165.65 -2.1189e-10 0)
(165.65 -1.42965e-10 0)
(165.65 -2.09221e-10 0)
(165.65 -3.3149e-10 0)
(165.65 -6.4884e-10 0)
(165.65 -1.23195e-09 0)
(165.65 -1.41203e-09 0)
(165.65 -1.68561e-09 0)
(165.65 -2.05288e-09 0)
(165.65 -2.23501e-09 0)
(165.65 -1.79254e-09 0)
(165.65 -1.61794e-09 0)
(165.65 -2.73319e-09 0)
(165.65 -4.94956e-09 0)
(165.65 -6.11714e-09 0)
(165.65 -5.48664e-09 0)
(165.65 -4.89882e-09 0)
(165.65 -8.75597e-09 0)
(165.65 -1.5446e-08 0)
(165.65 -1.97228e-08 0)
(165.65 -2.1706e-08 0)
(165.65 -1.97037e-08 0)
(165.65 -2.18882e-08 0)
(165.65 -3.27795e-08 0)
(165.65 -4.44582e-08 0)
(165.65 -3.93745e-08 0)
(165.65 -4.01959e-08 0)
(165.65 -5.86541e-08 0)
(165.65 -7.24335e-08 0)
(165.65 -5.6752e-08 0)
(165.65 -6.5842e-08 0)
(165.65 -1.06509e-07 0)
(165.65 -1.14869e-07 0)
(165.65 -1.07335e-07 0)
(165.65 -1.75127e-07 0)
(165.65 -2.26096e-07 0)
(165.65 -2.7348e-07 0)
(165.65 -3.56262e-07 0)
(165.65 -4.38402e-07 0)
(165.65 -4.04187e-13 0)
(165.65 -5.37574e-13 0)
(165.65 -1.38349e-12 0)
(165.65 -3.13972e-12 0)
(165.65 -4.44743e-12 0)
(165.65 -7.4926e-12 0)
(165.65 -1.2965e-11 0)
(165.65 -2.04087e-11 0)
(165.65 -3.32957e-11 0)
(165.65 -5.45507e-11 0)
(165.65 -8.58701e-11 0)
(165.65 -1.26566e-10 0)
(165.65 -1.72063e-10 0)
(165.65 -2.07907e-10 0)
(165.65 -2.24033e-10 0)
(165.65 -2.43003e-10 0)
(165.65 -2.65815e-10 0)
(165.65 -2.7151e-10 0)
(165.65 -3.90034e-10 0)
(165.65 -5.09302e-10 0)
(165.65 -6.11187e-10 0)
(165.65 -7.45086e-10 0)
(165.65 -8.8385e-10 0)
(165.65 -1.00963e-09 0)
(165.65 -1.11149e-09 0)
(165.65 -1.23786e-09 0)
(165.65 -1.70451e-09 0)
(165.65 -1.91942e-09 0)
(165.65 -1.83838e-09 0)
(165.65 -2.28681e-09 0)
(165.65 -2.91295e-09 0)
(165.65 -3.07738e-09 0)
(165.65 -3.22704e-09 0)
(165.65 -3.83163e-09 0)
(165.65 -3.98975e-09 0)
(165.65 -4.23153e-09 0)
(165.65 -4.85631e-09 0)
(165.65 -3.16411e-09 0)
(165.65 -1.52819e-09 0)
(165.65 -1.40288e-09 0)
(165.65 -5.40251e-09 0)
(165.65 -8.41154e-09 0)
(165.65 -9.13501e-09 0)
(165.65 -1.11716e-08 0)
(165.65 -1.98109e-08 0)
(165.65 -2.82035e-08 0)
(165.65 -2.04164e-08 0)
(165.65 -1.92781e-08 0)
(165.65 -2.79035e-08 0)
(165.65 -4.85455e-08 0)
(165.65 -4.3532e-08 0)
(165.65 -4.59095e-08 0)
(165.65 -8.45538e-08 0)
(165.65 -1.5155e-07 0)
(165.65 -1.62307e-07 0)
(165.65 -1.70915e-07 0)
(165.65 -2.66437e-07 0)
(165.65 -3.67298e-07 0)
(165.65 -3.9611e-07 0)
(165.65 -4.55883e-07 0)
(165.65 -9.46268e-13 0)
(165.65 -4.08306e-13 0)
(165.65 -1.14488e-13 0)
(165.65 -2.10777e-12 0)
(165.65 -4.8275e-12 0)
(165.65 -9.0359e-12 0)
(165.65 -1.6823e-11 0)
(165.65 -3.03782e-11 0)
(165.65 -5.11245e-11 0)
(165.65 -8.20874e-11 0)
(165.65 -1.21488e-10 0)
(165.65 -1.59896e-10 0)
(165.65 -1.97143e-10 0)
(165.65 -2.2534e-10 0)
(165.65 -2.75507e-10 0)
(165.65 -3.21709e-10 0)
(165.65 -3.87564e-10 0)
(165.65 -4.27702e-10 0)
(165.65 -3.83448e-10 0)
(165.65 -3.53371e-10 0)
(165.65 -4.16806e-10 0)
(165.65 -6.4531e-10 0)
(165.65 -7.97845e-10 0)
(165.65 -8.297e-10 0)
(165.65 -9.71158e-10 0)
(165.65 -1.27326e-09 0)
(165.65 -1.05111e-09 0)
(165.65 -7.24834e-10 0)
(165.65 -5.60823e-10 0)
(165.65 -9.61559e-10 0)
(165.65 -1.52975e-09 0)
(165.65 -1.62928e-09 0)
(165.65 -2.21511e-09 0)
(165.65 -2.83392e-09 0)
(165.65 -1.64358e-09 0)
(165.65 -1.68538e-09 0)
(165.65 -4.23949e-09 0)
(165.65 -6.11105e-09 0)
(165.65 -4.50362e-09 0)
(165.65 -2.40682e-09 0)
(165.65 -8.23227e-09 0)
(165.65 -1.43363e-08 0)
(165.65 -1.82507e-08 0)
(165.65 -2.27886e-08 0)
(165.65 -2.82398e-08 0)
(165.65 -3.80351e-08 0)
(165.65 -4.85126e-08 0)
(165.65 -5.84941e-08 0)
(165.65 -6.41972e-08 0)
(165.65 -9.31619e-08 0)
(165.65 -1.28541e-07 0)
(165.65 -1.43106e-07 0)
(165.65 -1.54824e-07 0)
(165.65 -2.33663e-07 0)
(165.65 -2.72758e-07 0)
(165.65 -2.52914e-07 0)
(165.65 -3.27099e-07 0)
(165.65 -4.19507e-07 0)
(165.65 -3.64392e-07 0)
(165.65 -4.61781e-07 0)
(165.65 -1.12948e-12 0)
(165.65 -1.91811e-12 0)
(165.65 -1.19783e-12 0)
(165.65 -7.86636e-13 0)
(165.65 -1.47784e-12 0)
(165.65 -3.73852e-12 0)
(165.65 -8.33256e-12 0)
(165.65 -1.04106e-11 0)
(165.65 -1.12213e-11 0)
(165.65 -1.20102e-11 0)
(165.65 -1.44733e-11 0)
(165.65 -1.63287e-11 0)
(165.65 -1.77193e-11 0)
(165.65 -2.12917e-11 0)
(165.65 -2.02158e-11 0)
(165.65 -3.53721e-12 0)
(165.65 2.31221e-11 0)
(165.65 -1.33862e-11 0)
(165.65 -8.02365e-11 0)
(165.65 -1.19906e-10 0)
(165.65 -1.55152e-10 0)
(165.65 -2.04911e-10 0)
(165.65 -2.74528e-10 0)
(165.65 -3.71584e-10 0)
(165.65 -4.98514e-10 0)
(165.65 -5.58442e-10 0)
(165.65 -7.66585e-10 0)
(165.65 -1.32283e-09 0)
(165.65 -1.77454e-09 0)
(165.65 -2.06955e-09 0)
(165.65 -3.38666e-09 0)
(165.65 -4.89879e-09 0)
(165.65 -5.18659e-09 0)
(165.65 -4.87236e-09 0)
(165.65 -5.48504e-09 0)
(165.65 -6.42266e-09 0)
(165.65 -8.03723e-09 0)
(165.65 -1.02822e-08 0)
(165.65 -1.1906e-08 0)
(165.65 -1.43509e-08 0)
(165.65 -1.75523e-08 0)
(165.65 -1.99833e-08 0)
(165.65 -2.50924e-08 0)
(165.65 -3.82364e-08 0)
(165.65 -4.41623e-08 0)
(165.65 -4.16749e-08 0)
(165.65 -5.80305e-08 0)
(165.65 -8.75749e-08 0)
(165.65 -1.0056e-07 0)
(165.65 -1.02149e-07 0)
(165.65 -1.40846e-07 0)
(165.65 -1.78758e-07 0)
(165.65 -1.79773e-07 0)
(165.65 -1.87098e-07 0)
(165.65 -2.57825e-07 0)
(165.65 -2.90548e-07 0)
(165.65 -3.3473e-07 0)
(165.65 -3.90381e-07 0)
(165.65 -4.21704e-07 0)
(165.65 -6.27917e-07 0)
(165.65 -4.0177e-13 0)
(165.65 -1.58196e-12 0)
(165.65 -1.80253e-12 0)
(165.65 -1.17119e-12 0)
(165.65 -6.43292e-14 0)
(165.65 -3.30432e-14 0)
(165.65 1.04747e-13 0)
(165.65 2.02006e-12 0)
(165.65 1.06197e-11 0)
(165.65 3.15461e-11 0)
(165.65 5.92664e-11 0)
(165.65 8.38702e-11 0)
(165.65 1.07169e-10 0)
(165.65 1.24356e-10 0)
(165.65 1.20864e-10 0)
(165.65 1.08674e-10 0)
(165.65 8.1161e-11 0)
(165.65 3.7003e-11 0)
(165.65 -1.83202e-11 0)
(165.65 -7.31131e-11 0)
(165.65 -9.97984e-11 0)
(165.65 3.47005e-11 0)
(165.65 1.34773e-10 0)
(165.65 1.28724e-10 0)
(165.65 1.48743e-10 0)
(165.65 2.18202e-10 0)
(165.65 1.24575e-11 0)
(165.65 -2.02646e-10 0)
(165.65 -3.47939e-10 0)
(165.65 -4.23298e-11 0)
(165.65 2.05301e-11 0)
(165.65 -1.24795e-09 0)
(165.65 -1.45899e-09 0)
(165.65 -4.83395e-10 0)
(165.65 -7.67952e-10 0)