/*--------------------------------*- C++ -*----------------------------------*\
  =========                 |
  \\      /  F ield         | OpenFOAM: The Open Source CFD Toolbox
   \\    /   O peration     | Website:  https://openfoam.org
    \\  /    A nd           | Version:  9
     \\/     M anipulation  |
\*---------------------------------------------------------------------------*/
FoamFile
{
    format      ascii;
    class       volScalarField;
    location    "0.001";
    object      p;
}
// * * * * * * * * * * * * * * * * * * * * * * * * * * * * * * * * * * * * * //

dimensions      [1 -1 -2 0 0 0 0];

internalField   nonuniform List<scalar> 
36400
(
2
2
2
2
2
2
2
2
2
2
2
2
2
2
2
2
2
2
2
2
2
2
2
2
2
2
2
2
2
2
2
2
2
2
2
2
2
2
2
2
2
2
2
2
2
2
2
2
2
2
2
2
2
2
2
2
2
2
2
2
2
2
2
2
2
2
2
2
2
2
2
2
2
2
2
2
2
2
2
2
2
2
2
2
2
2
2
2
2
2
2
2
2
2
2
2
2
2
2
2
2
2
2
2
2
2
2
2
2
2
2
2
2
2
2
2
2
2
2
2
2
2
2
2
2
2
2
2
2
2
2
2
2
2
2
2
2
2
2
2
2
2
2
2
2
2
2
2
2
2
2
2
2
2
2
2
2
2
2
2
2
2
2
2
2
2
2
2
2
2
2
2
2
2
2
2
2
2
2
2
2
2
2
2
2
2
2
2
2
2
2
2
2
2
2
2
2
2
2
2
2
2
2
2
2
2
2
2
2
2
2
2
2
2
2
2
2
2
2
2
2
2
2
2
2
2
2
2
2
2
2
2
2
2
2
2
2
2
2
2
2
2
2
2
2
2
2
2
2
2
2
2
2
2
2
2
2
2
2
2
2
2
2
2
2
2
2
2
2
2
2
2
2
2
2
2
2
2
2
2
2
2
2
2
2
2
2
2
2
2
2
2
2
2
2
2
2
2
2
2
2
2
2
2
2
2
2
2
2
2
2
2
2
2
2
2
2
2
2
2
2
2
2
2
2
2
2
2
2
2
2
2
2
2
2
2
2
2
2
2
2
2
2
2
2
2
2
2
2
2
2
2
2
2
2
2
2
2
2
2
2
2
2
2
2
2
2
2
2
2
2
2
2
2
2
2
2
2
2
2
2
2
2
2
2
2
2
2
2
2
2
2
2
2
2
2
2
2
2
2
2
2
2
2
2
2
2
2
2
2
2
2
2
2
2
2
2
2
2
2
2
2
2
2
2
2
2
2
2
2
2
2
2
2
2
2
2
2
2
2
2
2
2
2
2
2
2
2
2
2
2
2
2
2
2
2
2
2
2
2
2
2
2
2
2
2
2
2
2
2
2
2
2
2
2
2
2
2
2
2
2
2
2
2
2
2
2
2
2
2
2
2
2
2
2
2
2
2
2
2
2
2
2
2
2
2
2
2
2
2
2
2
2
2
2
2
2
2
2
2
2
2
2
2
2
2
2
2
2
2
2
2
2
2
2
2
2
2
2
2
2
2
2
2
2
2
2
2
2
2
2
2
2
2
2
2
2
2
2
2
2
2
2
2
2
2
2
2
2
2
2
2
2
2
2
2
2
2
2
2
2
2
2
2
2
2
2
2
2
2
2
2
2
2
2
2
2
2
2
2
2
2
2
2
2
2
2
2
2
2
2
2
2
2
2
2
2
2
2
2
2
2
2
2
2
2
2
2
2
2
2
2
2
2
2
2
2
2
2
2
2
2
2
2
2
2
2
2
2
2
2
2
2
2
2
2
2
2
2
2
2
2
2
2
2
2
2
2
2
2
2
2
2
2
2
2
2
2
2
2
2
2
2
2
2
2
2
2
2
2
2
2
2
2
2
2
2
2
2
2
2
2
2
2
2
2
2
2
2
2
2
2
2
2
2
2
2
2
2
2
2
2
2
2
2
2
2
2
2
2
2
2
2
2
2
2
2
2
2
2
2
2
2
2
2
2
2
2
2
2
2
2
2
2
2
2
2
2
2
2
2
2
2
2
2
2
2
2
2
2
2
2
2
2
2
2
2
2
2
2
2
2
2
2
2
2
2
2
2
2
2
2
2
2
2
2
2
2
2
2
2
2
2
2
2
2
2
2
2
2
2
2
2
2
2
2
2
2
2
2
2
2
2
2
2
2
2
2
2
2
2
2
2
2
2
2
2
2
2
2
2
2
2
2
2
2
2
2
2
2
2
2
2
2
2
2
2
2
2
2
2
2
2
2
2
2
2
2
2
2
2
2
2
2
2
2
2
2
2
2
2
2
2
2
2
2
2
2
2
2
2
2
2
2
2
2
2
2
2
2
2
2
2
2
2
2
2
2
2
2
2
2
2
2
2
2
2
2
2
2
2
2
2
2
2
2
2
2
2
2
2
2
2
2
2
2
2
2
2
2
2
2
2
2
2
2
2
2
2
2
2
2
2
2
2
2
2
2
2
2
2
2
2
2
2
2
2
2
2
2
2
2
2
2
2
2
2
2
2
2
2
2
2
2
2
2
2
2
2
2
2
2
2
2
2
2
2
2
2
2
2
2
2
2
2
2
2
2
2
2
2
2
2
2
2
2
2
2
2
2
2
2
2
2
2
2
2
2
2
2
2
2
2
2
2
2
2
2
2
2
2
2
2
2
2
2
2
2
2
2
2
2
2
2
2
2
2
2
2
2
2
2
2
2
2
2
2
2
2
2
2
2
2
2
2
2
2
2
2
2
2
2
2
2
2
2
2
2
2
2
2
2
2
2
2
2
2
2
2
2
2
2
2
2
2
2
2
2
2
2
2
2
2
2
2
2
2
2
2
2
2
2
2
2
2
2
2
2
2
2
2
2
2
2
2
2
2
2
2
2
2
2
2
2
2
2
2
2
2
2
2
2
2
2
2
2
2
2
2
2
2
2
2
2
2
2
2
2
2
2
2
2
2
2
2
2
2
2
2
2
2
2
2
2
2
2
2
2
2
2
2
2
2
2
2
2
2
2
2
2
2
2
2
2
2
2
2
2
2
2
2
2
2
2
2
2
2
2
2
2
2
2
2
2
2
2
2
2
2
2
2
2
2
2
2
2
2
2
2
2
2
2
2
2
2
2
2
2
2
2
2
2
2
2
2
2
2
2
2
2
2
2
2
2
2
2
2
2
2
2
2
2
2
2
2
2
2
2
2
2
2
2
2
2
2
2
2
2
2
2
2
2
2
2
2
2
2
2
2
2
2
2
2
2
2
2
2
2
2
2
2
2
2
2
2
2
2
2
2
2
2
2
2
2
2
2
2
2
2
2
2
2
2
2
2
2
2
2
2
2
2
2
2
2
2
2
2
2
2
2
2
2
2
2
2
2
2
2
2
2
2
2
2
2
2
2
2
2
2
2
2
2
2
2
2
2
2
2
2
2
2
2
2
2
2
2
2
2
2
2
2
2
2
2
2
2
2
2
2
2
2
2
2
2
2
2
2
2
2
2
2
2
2
2
2
2
2
2
2
2
2
2
2
2
2
2
2
2
2
2
2
2
2
2
2
2
2
2
2
2
2
2
2
2
2
2
2
2
2
2
2
2
2
2
2
2
2
2
2
2
2
2
2
2
2
2
2
2
2
2
2
2
2
2
2
2
2
2
2
2
2
2
2
2
2
2
2
2
2
2
2
2
2
2
2
2
2
2
2
2
2
2
2
2
2
2
2
2
2
2
2
2
2
2
2
2
2
2
2
2
2
2
2
2
2
2
2
2
2
2
2
2
2
2
2
2
2
2
2
2
2
2
2
2
2
2
2
2
2
2
2
2
2
2
2
2
2
2
2
2
2
2
2
2
2
2
2
2
2
2
2
2
2
2
2
2
2
2
2
2
2
2
2
2
2
2
2
2
2
2
2
2
2
2
2
2
2
2
2
2
2
2
2
2
2
2
2
2
2
2
2
2
2
2
2
2
2
2
2
2
2
2
2
2
2
2
2
2
2
2
2
2
2
2
2
2
2
2
2
2
2
2
2
2
2
2
2
2
2
2
2
2
2
2
2
2
2
2
2
2
2
2
2
2
2
2
2
2
2
2
2
2
2
2
2
2
2
2
2
2
2
2
2
2
2
2
2
2
2
2
2
2
2
2
2
2
2
2
2
2
2
2
2
2
2
2
2
2
2
2
2
2
2
2
2
2
2
2
2
2
2
2
2
2
2
2
2
2
2
2
2
2
2
2
2
2
2
2
2
2
2
2
2
2
2
2
2
2
2
2
2
2
2
2
2
2
2
2
2
2
2
2
2
2
2
2
2
2
2
2
2
2
2
2
2
2
2
2
2
2
2
2
2
2
2
2
2
2
2
2
2
2
2
2
2
2
2
2
2
2
2
2
2
2
2
2
2
2
2
2
2
2
2
2
2
2
2
2
2
2
2
2
2
2
2
2
2
2
2
2
2
2
2
2
2
2
2
2
2
2
2
2
2
2
2
2
2
2
2
2
2
2
2
2
2
2
2
2
2
2
2
2
2
2
2
2
2
2
2
2
2
2
2
2
2
2
2
2
2
2
2
2
2
2
2
2
2
2
2
2
2
2
2
2
2
2
2
2
2
2
2
2
2
2
2
2
2
2
2
2
2
2
2
2
2
2
2
2
2
2
2
2
2
2
2
2
2
2
2
2
2
2
2
2
2
2
2
2
2
2
2
2
2
2
2
2
2
2
2
2
2
2
2
2
2
2
2
2
2
2
2
2
2
2
2
2
2
2
2
2
2
2
2
2
2
2
2
2
2
2
2
2
2
2
2
2
2
2
2
2
2
2
2
2
2
2
2
2
2
2
2
2
2
2
2
2
2
2
2
2
2
2
2
2
2
2
2
2
2
2
2
2
2
2
2
2
2
2
2
2
2
2
2
2
2
2
2
2
2
2
2
2
2
2
2
2
2
2
2
2
2
2
2
2
2
2
2
2
2
2
2
2
2
2
2
2
2
2
2
2
2
2
2
2
2
2
2
2
2
2
2
2
2
2
2
2
2
2
2
2
2
2
2
2
2
2
2
2
2
2
2
2
2
2
2
2
2
2
2
2
2
2
2
2
2
2
2
2
2
2
2
2
2
2
2
2
2
2
2
2
2
2
2
2
2
2
2
2
2
2
2
2
2
2
2
2
2
2
2
2
2
2
2
2
2
2
2
2
2
2
2
2
2
2
2
2
2
2
2
2
2
2
2
2
2
2
2
2
2
2
2
2
2
2
2
2
2
2
2
2
2
2
2
2
2
2
2
2
2
2
2
2
2
2
2
2
2
2
2
2
2
2
2
2
2
2
2
2
2
2
2
2
2
2
2
2
2
2
2
2
2
2
2
2
2
2
2
2
2
2
2
2
2
2
2
2
2
2
2
2
2
2
2
2
2
2
2
2
2
2
2
2
2
2
2
2
2
2
2
2
2
2
2
2
2
2
2
2
2
2
2
2
2
2
2
2
2
2
2
2
2
2
2
2
2
2
2
2
2
2
2
2
2
2
2
2
2
2
2
2
2
2
2
2
2
2
2
2
2
2
2
2
2
2
2
2
2
2
2
2
2
2
2
2
2
2
2
2
2
2
2
2
2
2
2
2
2
2
2
2
2
2
2
2
2
2
2
2
2
2
2
2
2
2
2
2
2
2
2
2
2
2
2
2
2
2
2
2
2
2
2
2
2
2
2
2
2
2
2
2
2
2
2
2
2
2
2
2
2
2
2
2
2
2
2
2
2
2
2
2
2
2
2
2
2
2
2
2
2
2
2
2
2
2
2
2
2
2
2
2
2
2
2
2
2
2
2
2
2
2
2
2
2
2
2
2
2
2
2
2
2
2
2
2
2
2
2
2
2
2
2
2
2
2
2
2
2
2
2
2
2
2
2
2
2
2
2
2
2
2
2
2
2
2
2
2
2
2
2
2
2
2
2
2
2
2
2
2
2
2
2
2
2
2
2
2
2
2
2
2
2
2
2
2
2
2
2
2
2
2
2
2
2
2
2
2
2
2
2
2
2
2
2
2
2
2
2
2
2
2
2
2
2
2
2
2
2
2
2
2
2
2
2
2
2
2
2
2
2
2
2
2
2
2
2
2
2
2
2
2
2
2
2
2
2
2
2
2
2
2
2
2
2
2
2
2
2
2
2
2
2
2
2
2
2
2
2
2
2
2
2
2
2
2
2
2
2
2
2
2
2
2
2
2
2
2
2
2
2
2
2
2
2
2
2
2
2
2
2
2
2
2
2
2
2
2
2
2
2
2
2
2
2
2
2
2
2
2
2
2
2
2
2
2
2
2
2
2
2
2
2
2
2
2
2
2
2
2
2
2
2
2
2
2
2
2
2
2
2
2
2
2
2
2
2
2
2
2
2
2
2
2
2
2
2
2
2
2
2
2
2
2
2
2
2
2
2
2
2
2
2
2
2
2
2
2
2
2
2
2
2
2
2
2
2
2
2
2
2
2
2
2
2
2
2
2
2
2
2
2
2
2
2
2
2
2
2
2
2
2
2
2
2
2
2
2
2
2
2
2
2
2
2
2
2
2
2
2
2
2
2
2
2
2
2
2
2
2
2
2
2
2
2
2
2
2
2
2
2
2
2
2
2
2
2
2
2
2
2
2
2
2
2
2
2
2
2
2
2
2
2
2
2
2
2
2
2
2
2
2
2
2
2
2
2
2
2
2
2
2
2
2
2
2
2
2
2
2
2
2
2
2
2
2
2
2
2
2
2
2
2
2
2
2
2
2
2
2
2
2
2
2
2
2
2
2
2
2
2
2
2
2
2
2
2
2
2
2
2
2
2
2
2
2
2
2
2
2
2
2
2
2
2
2
2
2
2
2
2
2
2
2
2
2
2
2
2
2
2
2
2
2
2
2
2
2
2
2
2
2
2
2
2
2
2
2
2
2
2
2
2
2
2
2
2
2
2
2
2
2
2
2
2
2
2
2
2
2
2
2
2
2
2
2
2
2
2
2
2
2
2
2
2
2
2
2
2
2
2
2
2
2
2
2
2
2
2
2
2
2
2
2
2
2
2
2
2
2
2
2
2
2
2
2
2
2
2
2
2
2
2
2
2
2
2
2
2
2
2
2
2
2
2
2
2
2
2
2
2
2
2
2
2
2
2
2
2
2
2
2
2
2
2
2
2
2
2
2
2
2
2
2
2
2
2
2
2
2
2
2
2
2
2
2
2
2
2
2
2
2
2
2
2
2
2
2
2
2
2
2
2
2
2
2
2
2
2
2
2
2
2
2
2
2
2
2
2
2
2
2
2
2
2
2
2
2
2
2
2
2
2
2
2
2
2
2
2
2
2
2
2
2
2
2
2
2
2
2
2
2
2
2
2
2
2
2
2
2
2
2
2
2
2
2
2
2
2
2
2
2
2
2
2
2
2
2
2
2
2
2
2
2
2
2
2
2
2
2
2
2
2
2
2
2
2
2
2
2
2
2
2
2
2
2
2
2
2
2
2
2
2
2
2
2
2
2
2
2
2
2
2
2
2
2
2
2
2
2
2
2
2
2
2
2
2
2
2
2
2
2
2
2
2
2
2
2
2
2
2
2
2
2
2
2
2
2
2
2
2
2
2
2
2
2
2
2
2
2
2
2
2
2
2
2
2
2
2
2
2
2
2
2
2
2
2
2
2
2
2
2
2
2
2
2
2
2
2
2
2
2
2
2
2
2
2
2
2
2
2
2
2
2
2
2
2
2
2
2
2
2
2
2
2
2
2
2
2
2
2
2
2
2
2
2
2
2
2
2
2
2
2
2
2
2
2
2
2
2
2
2
2
2
2
2
2
2
2
2
2
2
2
2
2
2
2
2
2
2
2
2
2
2
2
2
2
2
2
2
2
2
2
2
2
2
2
2
2
2
2
2
2
2
2
2
2
2
2
2
2
2
2
2
2
2
2
2
2
2
2
2
2
2
2
2
2
2
2
2
2
2
2
2
2
2
2
2
2
2
2
2
2
2
2
2
2
2
2
2
2
2
2
2
2
2
2
2
2
2
2
2
2
2
2
2
2
2
2
2
2
2
2
2
2
2
2
2
2
2
2
2
2
2
2
2
2
2
2
2
2
2
2
2
2
2
2
2
2
2
2
2
2
2
2
2
2
2
2
2
2
2
2
2
2
2
2
2
2
2
2
2
2
2
2
2
2
2
2
2
2
2
2
2
2
2
2
2
2
2
2
2
2
2
2
2
2
2
2
2
2
2
2
2
2
2
2
2
2
2
2
2
2
2
2
2
2
2
2
2
2
2
2
2
2
2
2
2
2
2
2
2
2
2
2
2
2
2
2
2
2
2
2
2
2
2
2
2
2
2
2
2
2
2
2
2
2
2
2
2
2
2
2
2
2
2
2
2
2
2
2
2
2
2
2
2
2
2
2
2
2
2
2
2
2
2
2
2
2
2
2
2
2
2
2
2
2
2
2
2
2
2
2
2
2
2
2
2
2
2
2
2
2
2
2
2
2
2
2
2
2
2
2
2
2
2
2
2
2
2
2
2
2
2
2
2
2
2
2
2
2
2
2
2
2
2
2
2
2
2
2
2
2
2
2
2
2
2
2
2
2
2
2
2
2
2
2
2
2
2
2
2
2
2
2
2
2
2
2
2
2
2
2
2
2
2
2
2
2
2
2
2
2
2
2
2
2
2
2
2
2
2
2
2
2
2
2
2
2
2
2
2
2
2
2
2
2
2
2
2
2
2
2
2
2
2
2
2
2
2
2
2
2
2
2
2
2
2
2
2
2
2
2
2
2
2
2
2
2
2
2
2
2
2
2
2
2
2
2
2
2
2
2
2
2
2
2
2
2
2
2
2
2
2
2
2
2
2
2
2
2
2
2
2
2
2
2
2
2
2
2
2
2
2
2
2
2
2
2
2
2
2
2
2
2
2
2
2
2
2
2
2
2
2
2
2
2
2
2
2
2
2
2
2
2
2
2
2
2
2
2
2
2
2
2
2
2
2
2
2
2
2
2
2
2
2
2
2
2
2
2
2
2
2
2
2
2
2
2
2
2
2
2
2
2
2
2
2
2
2
2
2
2
2
2
2
2
2
2
2
2
2
2
2
2
2
2
2
2
2
2
2
2
2
2
2
2
2
2
2
2
2
2
2
2
2
2
2
2
2
2
2
2
2
2
2
2
2
2
2
2
2
2
2
2
2
2
2
2
2
2
2
2
2
2
2
2
2
2
2
2
2
2
2
2
2
2
2
2
2
2
2
2
2
2
2
2
2
2
2
2
2
2
2
2
2
2
2
2
2
2
2
2
2
2
2
2
2
2
2
2
2
2
2
2
2
2
2
2
2
2
2
2
2
2
2
2
2
2
2
2
2
2
2
2
2
2
2
2
2
2
2
2
2
2
2
2
2
2
2
2
2
2
2
2
2
2
2
2
2
2
2
2
2
2
2
2
2
2
2
2
2
2
2
2
2
2
2
2
2
2
2
2
2
2
2
2
2
2
2
2
2
2
2
2
2
2
2
2
2
2
2
2
2
2
2
2
2
2
2
2
2
2
2
2
2
2
2
2
2
2
2
2
2
2
2
2
2
2
2
2
2
2
2
2
2
2
2
2
2
2
2
2
2
2
2
2
2
2
2
2
2
2
2
2
2
2
2
2
2
2
2
2
2
2
2
2
2
2
2
2
2
2
2
2
2
2
2
2
2
2
2
2
2
2
2
2
2
2
2
2
2
2
2
2
2
2
2
2
2
2
2
2
2
2
2
2
2
2
2
2
2
2
2
2
2
2
2
2
2
2
2
2
2
2
2
2
2
2
2
2
2
2
2
2
2
2
2
2
2
2
2
2
2
2
2
2
2
2
2
2
2
2
2
2
2
2
2
2
2
2
2
2
2
2
2
2
2
2
2
2
2
2
2
2
2
2
2
2
2
2
2
2
2
2
2
2
2
2
2
2
2
2
2
2
2
2
2
2
2
2
2
2
2
2
2
2
2
2
2
2
2
2
2
2
2
2
2
2
2
2
2
2
2
2
2
2
2
2
2
2
2
2
2
2
2
2
2
2
2
2
2
2
2
2
2
2
2
2
2
2
2
2
2
2
2
2
2
2
2
2
2
2
2
2
2
2
2
2
2
2
2
2
2
2
2
2
2
2
2
2
2
2
2
2
2
2
2
2
2
2
2
2
2
2
2
2
2
2
2
2
2
2
2
2
2
2
2
2
2
2
2
2
2
2
2
2
2
2
2
2
2
2
2
2
2
2
2
2
2
2
2
2
2
2
2
2
2
2
2
2
2
2
2
2
2
2
2
2
2
2
2
2
2
2
2
2
2
2
2
2
2
2
2
2
2
2
2
2
2
2
2
2
2
2
2
2
2
2
2
2
2
2
2
2
2
2
2
2
2
2
2
2
2
2
2
2
2
2
2
2
2
2
2
2
2
2
2
2
2
2
2
2
2
2
2
2
2
2
2
2
2
2
2
2
2
2
2
2
2
2
2
2
2
2
2
2
2
2
2
2
2
2
2
2
2
2
2
2
2
2
2
2
2
2
2
2
2
2
2
2
2
2
2
2
2
2
2
2
2
2
2
2
2
2
2
2
2
2
2
2
2
2
2
2
2
2
2
2
2
2
2
2
2
2
2
2
2
2
2
2
2
2
2
2
2
2
2
2
2
2
2
2
2
2
2
2
2
2
2
2
2
2
2
2
2
2
2
2
2
2
2
2
2
2
2
2
2
2
2
2
2
2
2
2
2
2
2
2
2
2
2
2
2
2
2
2
2
2
2
2
2
2
2
2
2
2
2
2
2
2
2
2
2
2
2
2
2
2
2
2
2
2
2
2
2
2
2
2
2
2
2
2
2
2
2
2
2
2
2
2
2
2
2
2
2
2
2
2
2
2
2
2
2
2
2
2
2
2
2
2
2
2
2
2
2
2
2
2
2
2
2
2
2
2
2
2
2
2
2
2
2
2
2
2
2
2
2
2
2
2
2
2
2
2
2
2
2
2
2
2
2
2
2
2
2
2
2
2
2
2
2
2
2
2
2
2
2
2
2
2
2
2
2
2
2
2
2
2
2
2
2
2
2
2
2
2
2
2
2
2
2
2
2
2
2
2
2
2
2
2
2
2
2
2
2
2
2
2
2
2
2
2
2
2
2
2
2
2
2
2
2
2
2
2
2
2
2
2
2
2
2
2
2
2
2
2
2
2
2
2
2
2
2
2
2
2
2
2
2
2
2
2
2
2
2
2
2
2
2
2
2
2
2
2
2
2
2
2
2
2
2
2
2
2
2
2
2
2
2
2
2
2
2
2
2
2
2
2
2
2
2
2
2
2
2
2
2
2
2
2
2
2
2
2
2
2
2
2
2
2
2
2
2
2
2
2
2
2
2
2
2
2
2
2
2
2
2
2
2
2
2
2
2
2
2
2
2
2
2
2
2
2
2
2
2
2
2
2
2
2
2
2
2
2
2
2
2
2
2
2
2
2
2
2
2
2
2
2
2
2
2
2
2
2
2
2
2
2
2
2
2
2
2
2
2
2
2
2
2
2
2
2
2
2
2
2
2
2
2
2
2
2
2
2
2
2
2
2
2
2
2
2
2
2
2
2
2
2
2
2
2
2
2
2
2
2
2
2
2
2
2
2
2
2
2
2
2
2
2
2
2
2
2
2
2
2
2
2
2
2
2
2
2
2
2
2
2
2
2
2
2
2
2
2
2
2
2
2
2
2
2
2
2
2
2
2
2
2
2
2
2
2
2
2
2
2
2
2
2
2
2
2
2
2
2
2
2
2
2
2
2
2
2
2
2
2
2
2
2
2
2
2
2
2
2
2
2
2
2
2
2
2
2
2
2
2
2
2
2
2
2
2
2
2
2
2
2
2
2
2
2
2
2
2
2
2
2
2
2
2
2
2
2
2
2
2
2
2
2
2
2
2
2
2
2
2
2
2
2
2
2
2
2
2
2
2
2
2
2
2
2
2
2
2
2
2
2
2
2
2
2
2
2
2
2
2
2
2
2
2
2
2
2
2
2
2
2
2
2
2
2
2
2
2
2
2
2
2
2
2
2
2
2
2
2
2
2
2
2
2
2
2
2
2
2
2
2
2
2
2
2
2
2
2
2
2
2
2
2
2
2
2
2
2
2
2
2
2
2
2
2
2
2
2
2
2
2
2
2
2
2
2
2
2
2
2
2
2
2
2
2
2
2
2
2
2
2
2
2
2
2
2
2
2
2
2
2
2
2
2
2
2
2
2
2
2
2
2
2
2
2
2
2
2
2
2
2
2
2
2
2
2
2
2
2
2
2
2
2
2
2
2
2
2
2
2
2
2
2
2
2
2
2
2
2
2
2
2
2
2
2
2
2
2
2
2
2
2
2
2
2
2
2
2
2
2
2
2
2
2
2
2
2
2
2
2
2
2
2
2
2
2
2
2
2
2
2
2
2
2
2
2
2
2
2
2
2
2
2
2
2
2
2
2
2
2
2
2
2
2
2
2
2
2
2
2
2
2
2
2
2
2
2
2
2
2
2
2
2
2
2
2
2
2
2
2
2
2
2
2
2
2
2
2
2
2
2
2
2
2
2
2
2
2
2
2
2
2
2
2
2
2
2
2
2
2
2
2
2
2
2
2
2
2
2
2
2
2
2
2
2
2
2
2
2
2
2
2
2
2
2
2
2
2
2
2
2
2
2
2
2
2
2
2.00001
2.00001
2.00001
2.00001
2.00001
2.00001
2.00001
2.00001
2.00001
2.00001
2.00001
2
2
2
2
2
2
2
2
2
2
2
2
2
2
2
2
2
2
2
2
2
2
2
2
2
2
2
2
2
2
2
2
2
2
2
2
2
2
2
2
2
2
2
2
2
2
2
2
2
2
2
2
2
2
2
2
2
2.00001
2.00001
2.00001
2.00001
2.00001
2.00002
2.00002
2.00002
2.00002
2.00002
2.00002
2.00001
2.00001
2.00001
2
2
2
1.99999
1.99999
1.99999
1.99999
1.99999
1.99999
1.99999
2
2
2
2
2
2
2
2
2
2
2
2
2
2
2
2
2
2
2
2
2
2
2
2
2
2
2
2
2
2
2
2
2
2
2
2
2
2
2
2
2
2
2
2.00001
2.00001
2.00001
2.00001
2.00002
2.00002
2.00002
2.00003
2.00003
2.00003
2.00003
2.00003
2.00003
2.00003
2.00003
2.00002
2.00001
2
2
1.99999
1.99999
1.99999
1.99999
1.99999
1.99999
1.99999
1.99999
1.99999
1.99999
2
2
2
2
2
2
2
2
2
2
2
2
2
2
2
2
2
2
2
2
2
2
2
2
2
2
2
2
2
2
2
2
2
2
2
2
2
2
2
2
2.00001
2.00001
2.00001
2.00002
2.00002
2.00003
2.00004
2.00005
2.00005
2.00006
2.00006
2.00006
2.00006
2.00006
2.00006
2.00005
2.00004
2.00002
2.00001
1.99999
1.99998
1.99998
1.99997
1.99997
1.99997
1.99997
1.99997
1.99998
1.99998
1.99999
1.99999
1.99999
1.99999
2
2
2
2
2
2
2
2
2
2
2
2
2
2
2
2
2
2
2
2
2
2
2
2
2
2
2
2
2
2
2
2
2
2
2
2.00001
2.00001
2.00001
2.00002
2.00003
2.00004
2.00005
2.00006
2.00007
2.00009
2.0001
2.00011
2.00011
2.00011
2.00011
2.00011
2.00011
2.0001
2.00008
2.00004
2.00002
1.99999
1.99997
1.99996
1.99995
1.99995
1.99995
1.99995
1.99995
1.99995
1.99996
1.99997
1.99998
1.99998
1.99999
1.99999
1.99999
2
2
2
2
2
2
2
2
2
2
2
2
2
2
2
2
2
2
2
2
2
2
2
2
2
2
2
2
2
2
2
2.00001
2.00001
2.00001
2.00002
2.00003
2.00004
2.00005
2.00007
2.00009
2.00011
2.00014
2.00016
2.00018
2.0002
2.00021
2.00021
2.0002
2.0002
2.00019
2.00018
2.00014
2.00008
2.00003
1.99999
1.99995
1.99993
1.99991
1.99991
1.99991
1.99991
1.99991
1.99991
1.99992
1.99994
1.99995
1.99997
1.99997
1.99998
1.99999
1.99999
1.99999
2
2
2
2
2
2
2
2
2
2
2
2
2
2
2
2
2
2
2
2
2
2
2
2
2
2
2
2.00001
2.00001
2.00001
2.00002
2.00002
2.00004
2.00005
2.00007
2.00009
2.00013
2.00016
2.0002
2.00025
2.00029
2.00033
2.00036
2.00037
2.00037
2.00037
2.00036
2.00035
2.00032
2.00025
2.00015
2.00007
1.99999
1.99993
1.99988
1.99984
1.99983
1.99983
1.99983
1.99983
1.99983
1.99985
1.99987
1.9999
1.99993
1.99995
1.99996
1.99997
1.99998
1.99999
1.99999
1.99999
2
2
2
2
2
2
2
2
2
2
2
2
2
2
2
2
2
2
2
2
2
2
2
2
2.00001
2.00001
2.00001
2.00002
2.00003
2.00005
2.00007
2.00009
2.00013
2.00018
2.00023
2.0003
2.00037
2.00045
2.00053
2.00059
2.00064
2.00065
2.00065
2.00064
2.00063
2.00061
2.00056
2.00045
2.00028
2.00013
1.99999
1.99988
1.99979
1.99973
1.9997
1.99969
1.99969
1.99969
1.9997
1.99972
1.99975
1.99981
1.99985
1.99989
1.99992
1.99994
1.99996
1.99997
1.99998
1.99999
1.99999
1.99999
2
2
2
2
2
2
2
2
2
2
2
2
2
2
2
2
2
2
2
2
2.00001
2.00001
2.00001
2.00002
2.00003
2.00004
2.00006
2.00009
2.00012
2.00017
2.00024
2.00032
2.00042
2.00054
2.00066
2.0008
2.00093
2.00104
2.00111
2.00112
2.00112
2.00111
2.00109
2.00105
2.00096
2.00077
2.00049
2.00024
2.00001
1.99982
1.99966
1.99955
1.99948
1.99946
1.99946
1.99946
1.99947
1.99949
1.99954
1.99963
1.99971
1.99978
1.99983
1.99987
1.99991
1.99994
1.99996
1.99997
1.99998
1.99999
1.99999
1.99999
2
2
2
2
2
2
2
2
2
2
2
2
2
2
2
2
2
2.00001
2.00001
2.00002
2.00002
2.00004
2.00005
2.00008
2.00011
2.00016
2.00023
2.00032
2.00044
2.00058
2.00075
2.00095
2.00117
2.00139
2.0016
2.00177
2.00188
2.00189
2.00189
2.00188
2.00185
2.00177
2.00161
2.00129
2.00084
2.00043
2.00006
1.99974
1.99947
1.99927
1.99914
1.99908
1.99907
1.99908
1.99909
1.99911
1.99917
1.99929
1.99944
1.99956
1.99966
1.99974
1.99981
1.99986
1.9999
1.99993
1.99995
1.99997
1.99998
1.99999
1.99999
2
2
2
2
2
2
2
2
2
2
2
2
2
2
2.00001
2.00001
2.00001
2.00002
2.00003
2.00004
2.00007
2.0001
2.00014
2.00021
2.0003
2.00042
2.00058
2.00078
2.00103
2.00133
2.00166
2.00202
2.00238
2.00271
2.00296
2.00312
2.00313
2.00313
2.00311
2.00305
2.00293
2.00266
2.00211
2.0014
2.00076
2.00017
1.99964
1.9992
1.99886
1.99862
1.99848
1.99846
1.99846
1.99847
1.9985
1.99857
1.99872
1.99896
1.99917
1.99935
1.9995
1.99962
1.99972
1.99979
1.99985
1.9999
1.99993
1.99995
1.99997
1.99998
2
2
2
2
2
2
2
2
2
2
2
2
2
2.00001
2.00001
2.00002
2.00002
2.00004
2.00006
2.00008
2.00012
2.00018
2.00027
2.00038
2.00055
2.00076
2.00104
2.00139
2.00182
2.00231
2.00286
2.00343
2.004
2.00451
2.00485
2.00508
2.00508
2.00507
2.00504
2.00494
2.00473
2.00427
2.00336
2.00228
2.0013
2.00038
1.99954
1.99884
1.99827
1.99785
1.99759
1.9975
1.9975
1.99751
1.99755
1.99762
1.99779
1.99813
1.99848
1.99878
1.99903
1.99925
1.99943
1.99958
1.99969
1.99978
1.99984
1.99989
1.99992
1.99995
2
2
2
2
2
2
2
2
2
2
2
2.00001
2.00001
2.00001
2.00002
2.00003
2.00005
2.00007
2.0001
2.00016
2.00023
2.00034
2.00049
2.0007
2.00099
2.00136
2.00184
2.00244
2.00314
2.00395
2.00482
2.00572
2.00658
2.00729
2.00781
2.00809
2.00809
2.00806
2.008
2.00784
2.00747
2.0067
2.00519
2.00362
2.00215
2.00076
1.99947
1.99837
1.99747
1.99678
1.99631
1.99607
1.99605
1.99607
1.9961
1.99618
1.99636
1.99673
1.99731
1.99779
1.99822
1.99859
1.99891
1.99917
1.99938
1.99954
1.99967
1.99976
1.99983
1.99988
2
2
2
2
2
2
2
2
2
2
2.00001
2.00001
2.00002
2.00003
2.00004
2.00006
2.00009
2.00013
2.0002
2.00029
2.00042
2.00062
2.00089
2.00126
2.00176
2.0024
2.00322
2.0042
2.00535
2.00663
2.00799
2.00936
2.0106
2.01156
2.01229
2.01261
2.0126
2.01255
2.01244
2.01216
2.01152
2.01023
2.00781
2.00559
2.00345
2.0014
1.9995
1.99783
1.99644
1.99534
1.99454
1.99406
1.99393
1.99394
1.99397
1.99404
1.99423
1.99461
1.9954
1.99616
1.99683
1.99743
1.99796
1.99841
1.99878
1.99908
1.99932
1.9995
1.99964
1.99974
2
2
2
2
2
2
2
2
2.00001
2.00001
2.00001
2.00002
2.00003
2.00005
2.00007
2.00011
2.00016
2.00024
2.00036
2.00053
2.00078
2.00112
2.0016
2.00225
2.0031
2.00419
2.00553
2.00713
2.00895
2.01093
2.01299
2.01497
2.01661
2.01798
2.01893
2.01925
2.01922
2.01914
2.01893
2.01842
2.01731
2.01508
2.01159
2.00843
2.00539
2.00244
1.99971
1.99726
1.99517
1.99348
1.99221
1.99135
1.99094
1.99092
1.99095
1.99102
1.99119
1.99158
1.99236
1.99355
1.99456
1.9955
1.99634
1.99707
1.9977
1.99822
1.99865
1.99898
1.99925
1.99945
2
2
2
2
2
2
2
2.00001
2.00001
2.00002
2.00003
2.00004
2.00006
2.00009
2.00014
2.0002
2.0003
2.00045
2.00067
2.00098
2.00141
2.00203
2.00286
2.00397
2.0054
2.0072
2.00937
2.01189
2.01469
2.01767
2.02063
2.02323
2.02555
2.02738
2.02854
2.02875
2.0287
2.02855
2.02817
2.02726
2.02533
2.02151
2.01676
2.01239
2.00815
2.00405
2.00022
1.99672
1.99372
1.99123
1.98927
1.98786
1.987
1.98679
1.9868
1.98685
1.987
1.98734
1.98807
1.98955
1.99105
1.99241
1.99368
1.99482
1.99583
1.99669
1.99742
1.99802
1.9985
1.99887
2
2
2
2
2
2.00001
2.00001
2.00001
2.00002
2.00003
2.00005
2.00008
2.00011
2.00017
2.00026
2.00038
2.00056
2.00083
2.00122
2.00177
2.00255
2.00362
2.00505
2.00691
2.00928
2.01217
2.01559
2.01946
2.02365
2.02788
2.03177
2.03539
2.03847
2.04076
2.04204
2.04203
2.04192
2.04165
2.04093
2.03931
2.03599
2.02968
2.02357
2.0177
2.01196
2.0064
2.00118
1.99633
1.99218
1.98863
1.98576
1.98358
1.98208
1.98136
1.98131
1.98135
1.98146
1.98175
1.9824
1.9837
1.98582
1.98773
1.98954
1.99122
1.99275
1.99411
1.99529
1.99628
1.99712
1.99779
2
2
2
2.00001
2.00001
2.00001
2.00002
2.00003
2.00004
2.00006
2.0001
2.00014
2.00022
2.00032
2.00048
2.00071
2.00104
2.00153
2.00223
2.00321
2.00456
2.00639
2.0088
2.01187
2.01568
2.02023
2.02545
2.03121
2.03701
2.0426
2.04796
2.05274
2.05659
2.05923
2.06025
2.06017
2.05995
2.05936
2.05793
2.05488
2.04885
2.04021
2.03226
2.02457
2.017
2.00966
2.00274
1.99638
1.9907
1.98582
1.98178
1.97858
1.97624
1.97474
1.97429
1.9743
1.97438
1.97458
1.97509
1.97619
1.97838
1.981
1.98342
1.98575
1.98795
1.98996
1.99176
1.99333
1.99471
1.99584
2
2
2.00001
2.00001
2.00002
2.00002
2.00004
2.00006
2.00008
2.00012
2.00018
2.00027
2.00041
2.0006
2.00089
2.00131
2.00192
2.00279
2.00403
2.00574
2.00807
2.01115
2.01512
2.02008
2.02605
2.03297
2.04067
2.0484
2.05619
2.06378
2.07075
2.07666
2.08111
2.08378
2.08414
2.08396
2.0835
2.0823
2.07957
2.074
2.06352
2.053
2.04291
2.03305
2.02335
2.01395
2.00505
1.99689
1.98945
1.98298
1.97749
1.97303
1.96957
1.96712
1.96577
1.96558
1.96563
1.96577
1.96614
1.96696
1.96863
1.97181
1.97489
1.9779
1.98085
1.98364
1.98623
1.98857
1.99071
1.99252
2.00001
2.00001
2.00001
2.00002
2.00003
2.00005
2.00007
2.00011
2.00016
2.00024
2.00035
2.00052
2.00076
2.00112
2.00165
2.00242
2.00352
2.00507
2.00723
2.01019
2.01411
2.0192
2.02559
2.03334
2.04238
2.05242
2.06253
2.07303
2.08341
2.09311
2.10161
2.10835
2.11292
2.11471
2.11457
2.11415
2.113
2.11032
2.10492
2.0946
2.08059
2.06765
2.05521
2.04294
2.03088
2.01921
2.00815
1.99794
1.98857
1.98029
1.97313
1.96715
1.96234
1.95869
1.9562
1.95517
1.95512
1.9552
1.95543
1.95601
1.95726
1.9598
1.96366
1.96731
1.97099
1.97461
1.97807
1.98133
1.98442
1.98714
2.00001
2.00002
2.00003
2.00004
2.00006
2.00009
2.00014
2.00021
2.0003
2.00045
2.00066
2.00097
2.00143
2.0021
2.00306
2.00444
2.00641
2.00914
2.01288
2.01787
2.02436
2.03254
2.0425
2.05417
2.06691
2.07999
2.09376
2.10748
2.12044
2.13199
2.14144
2.14822
2.15194
2.15174
2.15133
2.1503
2.14781
2.14271
2.13219
2.11485
2.09881
2.08344
2.06845
2.05367
2.03918
2.02518
2.0119
1.99953
1.98815
1.97791
1.96892
1.96122
1.95483
1.94974
1.94595
1.94354
1.94286
1.94288
1.943
1.94334
1.94416
1.94591
1.94941
1.95381
1.95809
1.96245
1.96679
1.97101
1.97517
1.97897
2.00003
2.00004
2.00005
2.00008
2.00012
2.00018
2.00027
2.0004
2.00058
2.00085
2.00125
2.00183
2.00268
2.0039
2.00565
2.00813
2.01159
2.01633
2.02267
2.03092
2.04134
2.05403
2.06893
2.08472
2.10143
2.11905
2.13667
2.15335
2.16828
2.18061
2.1897
2.19503
2.19537
2.19493
2.19438
2.19253
2.18759
2.17603
2.15727
2.137
2.11809
2.10011
2.08247
2.06508
2.04809
2.0317
2.01618
2.00165
1.98808
1.97589
1.96502
1.95549
1.94736
1.94064
1.93533
1.93144
1.92923
1.92883
1.92889
1.92907
1.92954
1.93059
1.93277
1.93729
1.94212
1.94703
1.95209
1.95719
1.96241
1.96731
2.00006
2.00008
2.00011
2.00016
2.00024
2.00036
2.00052
2.00076
2.00112
2.00163
2.00237
2.00345
2.00501
2.00724
2.0104
2.01479
2.02081
2.02886
2.03934
2.05255
2.06859
2.08718
2.10656
2.12764
2.14967
2.17164
2.19233
2.21071
2.22579
2.23673
2.24337
2.24478
2.24714
2.24485
2.23808
2.22605
2.20814
2.18717
2.16629
2.14606
2.12684
2.10814
2.0897
2.07148
2.05357
2.03606
2.01913
2.00297
1.98801
1.97412
1.96147
1.95015
1.94023
1.93177
1.92478
1.91927
1.91533
1.91337
1.91313
1.91322
1.91345
1.91403
1.91532
1.91793
1.9231
1.92844
1.93396
1.93974
1.94586
1.95175
2.00012
2.00015
2.00022
2.00033
2.00048
2.0007
2.00101
2.00147
2.00214
2.0031
2.00449
2.0065
2.00936
2.0134
2.01901
2.02669
2.03693
2.05023
2.06691
2.08714
2.1097
2.1335
2.1595
2.18643
2.21303
2.23765
2.25919
2.27613
2.28953
2.29842
2.30008
2.29616
2.2849
2.27141
2.25322
2.23323
2.21212
2.19017
2.16894
2.14867
2.12917
2.11014
2.09139
2.0729
2.05471
2.03689
2.01959
2.00304
1.98726
1.97221
1.95813
1.94523
1.93362
1.92342
1.91469
1.90746
1.90177
1.8978
1.89605
1.89589
1.89599
1.89625
1.8969
1.89832
1.90116
1.90682
1.91263
1.91876
1.9255
1.93218
2.00025
2.00031
2.00044
2.00065
2.00094
2.00136
2.00197
2.00284
2.0041
2.00592
2.00852
2.01221
2.01742
2.02465
2.03448
2.04756
2.06442
2.0854
2.1106
2.13742
2.16656
2.19798
2.23013
2.26116
2.28922
2.31314
2.3344
2.34788
2.34595
2.34139
2.32879
2.31311
2.29451
2.27536
2.25527
2.23408
2.21239
2.19057
2.16927
2.14892
2.1293
2.11014
2.0913
2.07273
2.05447
2.03659
2.01914
2.00213
1.98564
1.96978
1.9547
1.94057
1.92755
1.91578
1.90538
1.89642
1.88895
1.88307
1.87906
1.87739
1.87724
1.87734
1.8776
1.87825
1.87965
1.88245
1.88836
1.89465
1.90164
1.90877
2.0005
2.00062
2.00088
2.00129
2.00186
2.00267
2.00383
2.00549
2.00788
2.01129
2.01613
2.02291
2.03227
2.04495
2.06168
2.08304
2.10935
2.13978
2.17162
2.2069
2.24409
2.28125
2.31589
2.34818
2.37605
2.39132
2.38778
2.38174
2.3711
2.35302
2.33398
2.31503
2.2955
2.27551
2.25508
2.23372
2.21176
2.1898
2.16851
2.14805
2.12821
2.1088
2.08973
2.07099
2.05258
2.03454
2.01686
1.99958
1.98275
1.96647
1.95081
1.9359
1.92185
1.90883
1.89698
1.88642
1.87725
1.86953
1.86342
1.85928
1.85752
1.85733
1.85743
1.85764
1.85818
1.85941
1.86208
1.86752
1.87479
1.88204
2.001
2.00125
2.00177
2.00257
2.00367
2.00523
2.00746
2.01064
2.01517
2.02156
2.03048
2.04272
2.05915
2.0806
2.10759
2.14056
2.17603
2.21406
2.25571
2.29847
2.33945
2.38111
2.41475
2.42991
2.42732
2.42153
2.41088
2.39197
2.37309
2.3542
2.33456
2.31465
2.2945
2.27365
2.25216
2.23017
2.20802
2.18611
2.16482
2.14419
2.12412
2.10452
2.08533
2.06656
2.04814
2.03012
2.01247
1.99521
1.97837
1.962
1.94615
1.93086
1.91623
1.90237
1.88942
1.87754
1.86685
1.85743
1.84943
1.84304
1.83868
1.83661
1.83629
1.83634
1.83651
1.83692
1.83796
1.84023
1.84464
1.85258
2.00203
2.00253
2.00356
2.00512
2.00726
2.01028
2.01458
2.02067
2.02923
2.04109
2.05722
2.07862
2.1061
2.14013
2.17975
2.22079
2.26618
2.31383
2.3608
2.41134
2.45065
2.46557
2.46435
2.45981
2.44926
2.43026
2.4118
2.39308
2.37315
2.35292
2.33224
2.31107
2.2894
2.26733
2.24507
2.22272
2.20055
2.17878
2.15761
2.137
2.11693
2.09735
2.07823
2.05957
2.04131
2.0235
2.00607
1.98905
1.97243
1.95624
1.94048
1.92517
1.91034
1.89607
1.88246
1.86962
1.8576
1.84668
1.83698
1.82861
1.82183
1.81713
1.81476
1.81424
1.8142
1.81432
1.8146
1.8153
1.81686
1.82027
2.0041
2.00509
2.00715
2.01023
2.01441
2.02028
2.02859
2.0402
2.05614
2.07757
2.10548
2.14056
2.18337
2.22878
2.27683
2.32881
2.38123
2.43956
2.48443
2.4999
2.50068
2.49639
2.48594
2.46776
2.44963
2.4312
2.41115
2.39064
2.36939
2.34749
2.32518
2.30263
2.27995
2.25723
2.23458
2.21217
2.19012
2.16857
2.14757
2.12714
2.10723
2.08782
2.06891
2.05049
2.03251
2.015
1.99791
1.98125
1.96499
1.94913
1.93366
1.91858
1.90387
1.88957
1.87572
1.86228
1.84956
1.83764
1.82663
1.81667
1.80791
1.80056
1.79506
1.79188
1.79093
1.79093
1.79095
1.79103
1.79116
1.79134
2.00829
2.01027
2.0144
2.02047
2.02871
2.04018
2.05613
2.07778
2.10633
2.14265
2.18742
2.23799
2.28938
2.34507
2.40249
2.46763
2.51742
2.53422
2.53627
2.53215
2.52167
2.50414
2.48616
2.46848
2.44834
2.42757
2.40586
2.3834
2.36044
2.33722
2.31392
2.29066
2.26751
2.24455
2.22187
2.19955
2.17771
2.15638
2.13562
2.1154
2.09572
2.07657
2.05793
2.0398
2.02215
2.005
1.98829
1.97203
1.95619
1.94075
1.92569
1.91098
1.8966
1.88254
1.86873
1.85531
1.84233
1.82989
1.81808
1.80702
1.79682
1.78764
1.77968
1.7733
1.76892
1.76664
1.76617
1.76629
1.76644
1.76652
2.01676
2.02077
2.02911
2.04113
2.05733
2.07955
2.10913
2.14711
2.19411
2.24978
2.30603
2.36435
2.42677
2.49773
2.55103
2.56926
2.57161
2.56745
2.557
2.53982
2.52178
2.50455
2.48458
2.46341
2.44134
2.41846
2.39507
2.37138
2.34755
2.32374
2.30006
2.27656
2.25332
2.23039
2.20783
2.18571
2.16408
2.14298
2.12244
2.10245
2.08301
2.06412
2.04576
2.02793
2.01062
1.99381
1.97749
1.96163
1.94622
1.93122
1.9166
1.90234
1.8884
1.87475
1.86128
1.84816
1.83534
1.82285
1.81075
1.79912
1.78808
1.77771
1.76816
1.7596
1.75236
1.74681
1.74328
1.74195
1.74187
1.74189
2.03392
2.04212
2.05914
2.08286
2.11428
2.1547
2.20489
2.26569
2.32751
2.38875
2.45672
2.5323
2.58657
2.60583
2.6071
2.60274
2.59218
2.5748
2.55684
2.53968
2.5198
2.49824
2.47575
2.4525
2.42879
2.4048
2.38069
2.35655
2.33248
2.30856
2.28486
2.26142
2.23828
2.2155
2.19312
2.17119
2.14976
2.12885
2.1085
2.08871
2.06948
2.05082
2.03272
2.01517
1.99817
1.98168
1.96571
1.95023
1.93522
1.92065
1.90648
1.89268
1.87922
1.86601
1.8531
1.84045
1.82805
1.81588
1.80394
1.79227
1.78094
1.77003
1.75962
1.74984
1.74086
1.73294
1.72647
1.72178
1.71929
1.71761
2.06877
2.08581
2.12063
2.16598
2.22122
2.28787
2.35589
2.42081
2.49533
2.57397
2.62539
2.64459
2.64304
2.63838
2.62733
2.60916
2.5914
2.57389
2.55377
2.53185
2.50902
2.48547
2.46149
2.43731
2.41305
2.38878
2.36456
2.34044
2.31647
2.29268
2.26913
2.24585
2.22287
2.20025
2.17803
2.15626
2.13498
2.11422
2.09402
2.07438
2.05533
2.03686
2.01898
2.00166
1.98493
1.96872
1.95307
1.93793
1.92329
1.90911
1.89537
1.88202
1.86904
1.85629
1.84396
1.8319
1.82007
1.80843
1.79697
1.78567
1.77455
1.76365
1.75303
1.74277
1.73298
1.7238
1.7154
1.70816
1.70265
1.69733
2.13982
2.17551
2.24262
2.31936
2.39456
2.4642
2.54662
2.62442
2.67022
2.68498
2.68141
2.67385
2.66237
2.64304
2.6253
2.60697
2.58613
2.56381
2.54068
2.517
2.49292
2.46869
2.44443
2.42018
2.39598
2.37186
2.34784
2.32393
2.30016
2.27657
2.25319
2.23006
2.20723
2.18473
2.16263
2.14096
2.11978
2.09913
2.07903
2.0595
2.04058
2.02226
2.00455
1.98743
1.97092
1.95497
1.93959
1.92475
1.91044
1.89663
1.88328
1.87036
1.85783
1.84562
1.83378
1.82231
1.81109
1.8001
1.78927
1.77858
1.76801
1.75756
1.74725
1.73711
1.7272
1.71759
1.70836
1.69974
1.6921
1.68354
2.28256
2.35167
2.4444
2.52624
2.61489
2.68616
2.72179
2.72653
2.72275
2.71065
2.69616
2.67662
2.65829
2.63846
2.61659
2.59373
2.57034
2.54661
2.52262
2.49854
2.47447
2.45044
2.42645
2.40251
2.37862
2.35477
2.33099
2.30729
2.2837
2.26025
2.23699
2.21397
2.19122
2.16881
2.14678
2.12518
2.10407
2.08347
2.06344
2.044
2.02517
2.00696
1.98938
1.97242
1.95609
1.94036
1.92523
1.91065
1.89664
1.88316
1.87017
1.85766
1.84544
1.83379
1.8225
1.81157
1.80095
1.79059
1.78045
1.77048
1.76063
1.75088
1.74121
1.73161
1.72209
1.71268
1.7034
1.69439
1.68583
1.67532
2.5252
2.59389
2.70166
2.76437
2.77734
2.77255
2.76191
2.75065
2.72921
2.70947
2.68943
2.66751
2.64442
2.62095
2.59736
2.5737
2.55
2.52632
2.5027
2.47911
2.45555
2.432
2.40843
2.38483
2.36121
2.33757
2.31395
2.29036
2.26686
2.24349
2.22029
2.19732
2.17462
2.15226
2.13027
2.10872
2.08765
2.06711
2.04713
2.02774
2.00898
1.99085
1.97338
1.95654
1.94036
1.92481
1.90989
1.89555
1.8818
1.86861
1.85596
1.84382
1.83203
1.82077
1.80997
1.79956
1.7895
1.77975
1.77027
1.761
1.75192
1.74295
1.73408
1.72525
1.71646
1.70767
1.69888
1.69015
1.68162
1.67044
2.82512
2.8314
2.82976
2.82401
2.80999
2.78438
2.76202
2.73994
2.71666
2.69254
2.66838
2.64449
2.62092
2.59759
2.57444
2.55146
2.52858
2.50573
2.48285
2.4599
2.43686
2.4137
2.39042
2.36703
2.34354
2.31998
2.2964
2.27284
2.24935
2.22598
2.20279
2.17984
2.15716
2.13483
2.11288
2.09137
2.07034
2.04984
2.02991
2.01057
1.99186
1.97381
1.95641
1.93967
1.92361
1.90822
1.89346
1.87934
1.86581
1.85289
1.84053
1.82861
1.81731
1.80646
1.7961
1.78616
1.77662
1.76743
1.75855
1.74995
1.74157
1.73338
1.72531
1.71733
1.70939
1.70144
1.69346
1.68547
1.67757
1.66678
2.88215
2.86826
2.84315
2.81424
2.78787
2.76214
2.73622
2.71086
2.68649
2.66294
2.64002
2.61757
2.59545
2.57356
2.55176
2.52994
2.508
2.48591
2.4636
2.44106
2.41829
2.3953
2.3721
2.34873
2.32523
2.30164
2.27802
2.25441
2.23088
2.20749
2.18428
2.16131
2.13865
2.11633
2.09441
2.07294
2.05196
2.0315
2.01162
1.99233
1.97368