/*--------------------------------*- C++ -*----------------------------------*\
  =========                 |
  \\      /  F ield         | OpenFOAM: The Open Source CFD Toolbox
   \\    /   O peration     | Website:  https://openfoam.org
    \\  /    A nd           | Version:  9
     \\/     M anipulation  |
\*---------------------------------------------------------------------------*/
FoamFile
{
    format      ascii;
    class       surfaceScalarField;
    location    "0.001";
    object      phi;
}
// * * * * * * * * * * * * * * * * * * * * * * * * * * * * * * * * * * * * * //

dimensions      [1 0 -1 0 0 0 0];

internalField   nonuniform List<scalar> 
72280
(
1.12235e-05
6.1529e-20
1.12235e-05
7.90785e-20
1.12235e-05
8.52062e-20
1.12235e-05
9.30016e-20
1.12235e-05
9.8944e-20
1.12235e-05
1.00969e-19
1.12235e-05
8.39092e-20
1.12235e-05
7.24346e-20
1.12235e-05
5.92129e-20
1.12235e-05
4.15046e-20
1.12235e-05
1.7073e-21
1.12235e-05
-3.07049e-21
1.12235e-05
1.54451e-20
1.12235e-05
3.13799e-20
1.12235e-05
6.08805e-21
1.12235e-05
7.54389e-21
1.12235e-05
3.42254e-20
1.12235e-05
2.43125e-20
1.12235e-05
3.69253e-21
1.12235e-05
-2.25787e-20
1.12235e-05
-2.77933e-22
1.12235e-05
4.86515e-20
1.12235e-05
1.00585e-20
1.12235e-05
-9.2856e-20
1.12235e-05
-1.00466e-19
1.12235e-05
-1.29173e-20
1.12235e-05
1.73377e-21
1.12235e-05
4.03796e-20
1.12235e-05
1.09903e-19
1.12235e-05
2.26317e-21
1.12235e-05
-2.36507e-20
1.12235e-05
1.24355e-19
1.12235e-05
9.70779e-20
1.12235e-05
-3.764e-20
1.12235e-05
-1.41613e-20
1.12235e-05
5.646e-20
1.12235e-05
2.14935e-20
1.12235e-05
-1.94553e-21
1.12235e-05
1.51937e-20
1.12235e-05
-8.79326e-20
1.12235e-05
-4.62956e-20
1.12235e-05
4.70236e-20
1.12235e-05
-5.07955e-20
1.12235e-05
-3.0652e-20
1.12235e-05
1.15448e-19
1.12235e-05
-1.51712e-19
1.12235e-05
-1.47278e-19
1.12235e-05
3.85281e-19
1.12235e-05
-1.48218e-19
1.12235e-05
-5.08842e-19
1.12235e-05
2.91723e-19
1.12235e-05
9.34383e-20
1.12235e-05
-4.93132e-19
1.12235e-05
-5.33498e-20
1.12235e-05
-8.99973e-20
1.12235e-05
-2.53064e-19
1.12235e-05
9.54236e-20
1.12235e-05
-2.18482e-19
1.12235e-05
-4.32291e-19
5.17087e-20
1.12235e-05
1.12235e-05
-2.5861e-20
1.12235e-05
2.91168e-22
1.12235e-05
2.25655e-20
1.12235e-05
4.05252e-20
1.12235e-05
6.33819e-20
1.12235e-05
5.79688e-20
1.12235e-05
4.705e-20
1.12235e-05
5.05308e-20
1.12235e-05
2.93947e-20
1.12235e-05
1.49951e-20
1.12235e-05
2.41801e-20
1.12235e-05
5.51895e-21
1.12235e-05
-2.16787e-20
1.12235e-05
-1.62657e-20
1.12235e-05
7.76888e-21
1.12235e-05
7.98064e-21
1.12235e-05
6.97479e-21
1.12235e-05
1.86877e-20
1.12235e-05
1.2454e-20
1.12235e-05
5.00279e-21
1.12235e-05
1.45848e-20
1.12235e-05
4.23649e-20
1.12235e-05
1.21364e-20
1.12235e-05
-6.11849e-20
1.12235e-05
-5.48983e-20
1.12235e-05
-1.03232e-20
1.12235e-05
-2.11758e-20
1.12235e-05
-1.69142e-20
1.12235e-05
3.55754e-20
1.12235e-05
7.30698e-20
1.12235e-05
2.30287e-20
1.12235e-05
-2.1017e-20
1.12235e-05
9.69059e-20
1.12235e-05
1.80656e-19
1.12235e-05
-1.35261e-20
1.12235e-05
-1.02557e-19
1.12235e-05
5.60233e-20
1.12235e-05
9.26442e-20
1.12235e-05
-3.74547e-21
1.12235e-05
5.92658e-20
1.12235e-05
9.84808e-20
1.12235e-05
-4.74471e-20
1.12235e-05
1.51937e-20
1.12235e-05
2.0301e-19
1.12235e-05
-6.49039e-20
1.12235e-05
-1.55695e-19
1.12235e-05
2.50589e-19
1.12235e-05
9.32001e-20
1.12235e-05
-1.8464e-19
1.12235e-05
2.32365e-19
1.12235e-05
1.29728e-19
1.12235e-05
-3.89556e-19
1.12235e-05
-2.11441e-19
1.12235e-05
-1.94804e-19
1.12235e-05
-5.1845e-19
1.12235e-05
-6.05629e-19
1.12235e-05
-7.27045e-19
1.12235e-05
-1.24984e-18
1.12235e-05
-1.40093e-18
-1.11176e-18
1.12235e-05
1.12235e-05
1.34334e-20
1.12235e-05
1.50348e-20
1.12235e-05
2.30022e-20
1.12235e-05
1.73112e-20
1.12235e-05
1.97597e-20
1.12235e-05
4.22458e-20
1.12235e-05
5.63012e-20
1.12235e-05
6.54862e-20
1.12235e-05
6.19128e-20
1.12235e-05
5.12323e-20
1.12235e-05
3.40534e-20
1.12235e-05
1.31687e-20
1.12235e-05
1.08923e-20
1.12235e-05
5.46601e-21
1.12235e-05
2.96462e-21
1.12235e-05
2.04744e-20
1.12235e-05
3.4146e-21
1.12235e-05
7.43801e-21
1.12235e-05
2.7833e-20
1.12235e-05
1.03364e-20
1.12235e-05
-6.88214e-21
1.12235e-05
-1.22026e-20
1.12235e-05
2.48154e-20
1.12235e-05
1.04847e-19
1.12235e-05
1.08275e-19
1.12235e-05
4.21002e-20
1.12235e-05
6.07217e-20
1.12235e-05
5.42895e-20
1.12235e-05
-5.71747e-20
1.12235e-05
-1.31555e-20
1.12235e-05
5.66321e-20
1.12235e-05
1.83436e-20
1.12235e-05
-5.02529e-20
1.12235e-05
-9.21413e-20
1.12235e-05
-2.70653e-20
1.12235e-05
1.84216e-19
1.12235e-05
1.46246e-19
1.12235e-05
-5.56792e-20
1.12235e-05
1.28246e-20
1.12235e-05
1.22065e-19
1.12235e-05
3.21078e-20
1.12235e-05
9.95396e-20
1.12235e-05
2.50947e-19
1.12235e-05
1.88584e-19
1.12235e-05
7.17066e-20
1.12235e-05
3.09405e-19
1.12235e-05
3.27471e-19
1.12235e-05
-1.75627e-20
1.12235e-05
1.10035e-19
1.12235e-05
2.99823e-19
1.12235e-05
-2.9355e-20
1.12235e-05
-3.18511e-19
1.12235e-05
-1.35287e-19
1.12235e-05
2.77642e-19
1.12235e-05
-2.44541e-19
1.12235e-05
-1.23034e-18
1.12235e-05
-1.28926e-18
1.12235e-05
-1.35128e-19
1.12235e-05
1.17207e-18
-1.80421e-18
1.12235e-05
1.12235e-05
-1.41613e-20
1.12235e-05
-2.44581e-20
1.12235e-05
-9.91293e-21
1.12235e-05
8.98649e-21
1.12235e-05
2.38096e-20
1.12235e-05
2.5861e-20
1.12235e-05
2.93153e-20
1.12235e-05
1.87141e-20
1.12235e-05
2.57022e-20
1.12235e-05
4.03796e-20
1.12235e-05
5.01602e-20
1.12235e-05
7.17199e-20
1.12235e-05
9.57677e-20
1.12235e-05
1.01234e-19
1.12235e-05
8.93487e-20
1.12235e-05
6.38583e-20
1.12235e-05
7.14684e-20
1.12235e-05
5.88026e-20
1.12235e-05
2.87594e-20
1.12235e-05
7.43801e-21
1.12235e-05
2.28567e-20
1.12235e-05
-2.38228e-22
1.12235e-05
-4.29869e-20
1.12235e-05
2.85212e-20
1.12235e-05
6.77229e-20
1.12235e-05
3.08373e-21
1.12235e-05
1.64377e-20
1.12235e-05
4.26825e-20
1.12235e-05
1.04291e-20
1.12235e-05
3.6171e-20
1.12235e-05
7.09125e-20
1.12235e-05
-9.35707e-21
1.12235e-05
-2.89976e-20
1.12235e-05
2.25311e-19
1.12235e-05
2.44488e-19
1.12235e-05
-1.5641e-19
1.12235e-05
9.21281e-20
1.12235e-05
5.7544e-19
1.12235e-05
8.1699e-20
1.12235e-05
-2.96329e-19
1.12235e-05
2.61323e-19
1.12235e-05
5.81647e-19
1.12235e-05
-4.07635e-21
1.12235e-05
-2.39485e-19
1.12235e-05
5.63647e-19
1.12235e-05
5.91308e-19
1.12235e-05
-3.62212e-19
1.12235e-05
1.36253e-19
1.12235e-05
6.49965e-19
1.12235e-05
-7.11296e-19
1.12235e-05
-1.44128e-19
1.12235e-05
1.06504e-18
1.12235e-05
-1.57931e-18
1.12235e-05
-7.67928e-19
1.12235e-05
3.62198e-18
1.12235e-05
-2.19479e-18
1.12235e-05
-8.69234e-18
1.12235e-05
4.38869e-18
1.12235e-05
1.1734e-17
-1.12186e-17
1.12235e-05
1.12235e-05
-2.63374e-21
1.12235e-05
8.7615e-21
1.12235e-05
1.02173e-20
1.12235e-05
-2.77933e-22
1.12235e-05
-1.52995e-20
1.12235e-05
-1.17261e-20
1.12235e-05
6.5248e-21
1.12235e-05
3.23328e-20
1.12235e-05
4.51839e-20
1.12235e-05
6.77891e-20
1.12235e-05
9.15722e-20
1.12235e-05
1.17989e-19
1.12235e-05
1.21086e-19
1.12235e-05
1.25162e-19
1.12235e-05
1.38927e-19
1.12235e-05
1.44049e-19
1.12235e-05
1.34678e-19
1.12235e-05
1.13555e-19
1.12235e-05
1.09585e-19
1.12235e-05
9.65618e-20
1.12235e-05
7.83373e-20
1.12235e-05
6.53539e-20
1.12235e-05
1.32878e-20
1.12235e-05
4.17164e-20
1.12235e-05
1.23018e-19
1.12235e-05
1.25705e-19
1.12235e-05
1.10154e-19
1.12235e-05
1.11425e-19
1.12235e-05
1.56304e-19
1.12235e-05
1.67289e-19
1.12235e-05
1.08778e-19
1.12235e-05
1.10988e-19
1.12235e-05
8.84488e-20
1.12235e-05
-1.00347e-19
1.12235e-05
-4.08032e-20
1.12235e-05
1.59269e-19
1.12235e-05
-1.362e-19
1.12235e-05
-3.93513e-19
1.12235e-05
3.719e-20
1.12235e-05
4.15483e-19
1.12235e-05
-5.07161e-20
1.12235e-05
-3.73767e-19
1.12235e-05
2.84378e-19
1.12235e-05
2.59139e-19
1.12235e-05
-3.79431e-19
1.12235e-05
1.76712e-19
1.12235e-05
4.33549e-19
1.12235e-05
-5.89323e-19
1.12235e-05
-4.17693e-20
1.12235e-05
1.47658e-18
1.12235e-05
-8.42202e-19
1.12235e-05
-3.31022e-18
1.12235e-05
7.32009e-19
1.12235e-05
2.33974e-18
1.12235e-05
-3.41256e-18
1.12235e-05
-8.19716e-19
1.12235e-05
7.00884e-18
1.12235e-05
-2.80948e-18
1.12235e-05
-1.31604e-17
5.46155e-18
1.12235e-05
1.12235e-05
-8.5365e-21
1.12235e-05
-1.03894e-20
1.12235e-05
-1.28378e-21
1.12235e-05
1.12497e-20
1.12235e-05
1.68083e-20
1.12235e-05
1.32614e-20
1.12235e-05
3.31534e-20
1.12235e-05
4.19811e-20
1.12235e-05
4.75133e-20
1.12235e-05
7.8205e-20
1.12235e-05
1.06104e-19
1.12235e-05
1.09108e-19
1.12235e-05
1.15898e-19
1.12235e-05
1.31462e-19
1.12235e-05
1.17393e-19
1.12235e-05
9.97381e-20
1.12235e-05
1.14111e-19
1.12235e-05
1.09783e-19
1.12235e-05
8.54842e-20
1.12235e-05
9.22604e-20
1.12235e-05
6.05893e-20
1.12235e-05
3.21078e-20
1.12235e-05
1.25956e-19
1.12235e-05
7.19581e-20
1.12235e-05
-4.09223e-20
1.12235e-05
8.35519e-20
1.12235e-05
1.57098e-19
1.12235e-05
4.85853e-20
1.12235e-05
2.75418e-20
1.12235e-05
8.3446e-20
1.12235e-05
1.33672e-21
1.12235e-05
-6.66641e-20
1.12235e-05
1.13158e-20
1.12235e-05
-7.34933e-20
1.12235e-05
-2.40147e-19
1.12235e-05
-3.05461e-20
1.12235e-05
6.09467e-20
1.12235e-05
-1.9851e-19
1.12235e-05
-2.32259e-19
1.12235e-05
-1.38358e-19
1.12235e-05
2.79746e-19
1.12235e-05
4.78097e-19
1.12235e-05
-5.70437e-19
1.12235e-05
-7.2154e-19
1.12235e-05
4.7324e-19
1.12235e-05
-1.57786e-19
1.12235e-05
-1.06807e-18
1.12235e-05
2.78621e-19
1.12235e-05
4.32741e-19
1.12235e-05
-1.56525e-18
1.12235e-05
-6.94832e-20
1.12235e-05
3.39304e-18
1.12235e-05
6.27453e-19
1.12235e-05
-3.48841e-18
1.12235e-05
1.18651e-19
1.12235e-05
3.50927e-18
1.12235e-05
-1.25262e-18
1.12235e-05
-4.16939e-18
1.12235e-05
1.16242e-18
2.68024e-18
1.12235e-05
1.12235e-05
3.13535e-20
1.12235e-05
5.46469e-20
1.12235e-05
7.81653e-20
1.12235e-05
9.65221e-20
1.12235e-05
1.04542e-19
1.12235e-05
1.09625e-19
1.12235e-05
1.05681e-19
1.12235e-05
1.05456e-19
1.12235e-05
1.05416e-19
1.12235e-05
1.00704e-19
1.12235e-05
9.98572e-20
1.12235e-05
1.06078e-19
1.12235e-05
9.95264e-20
1.12235e-05
9.41265e-20
1.12235e-05
1.03973e-19
1.12235e-05
1.18995e-19
1.12235e-05
1.05045e-19
1.12235e-05
8.76679e-20
1.12235e-05
8.96928e-20
1.12235e-05
6.84376e-20
1.12235e-05
4.84265e-20
1.12235e-05
5.72674e-20
1.12235e-05
5.95305e-20
1.12235e-05
4.18355e-20
1.12235e-05
3.99561e-20
1.12235e-05
6.29187e-20
1.12235e-05
1.35737e-19
1.12235e-05
1.36902e-19
1.12235e-05
2.80712e-20
1.12235e-05
3.33652e-20
1.12235e-05
2.00006e-19
1.12235e-05
1.50322e-19
1.12235e-05
-1.50931e-19
1.12235e-05
4.98161e-20
1.12235e-05
4.4685e-19
1.12235e-05
4.61104e-20
1.12235e-05
-3.40931e-19
1.12235e-05
1.6353e-19
1.12235e-05
3.78028e-19
1.12235e-05
-1.88438e-19
1.12235e-05
-4.21558e-19
1.12235e-05
-2.23259e-19
1.12235e-05
-2.07788e-20
1.12235e-05
2.75061e-19
1.12235e-05
2.14988e-19
1.12235e-05
-4.03863e-19
1.12235e-05
-5.50386e-19
1.12235e-05
6.73484e-19
1.12235e-05
1.12179e-18
1.12235e-05
-9.68251e-19
1.12235e-05
-8.54722e-19
1.12235e-05
1.62391e-18
1.12235e-05
5.51591e-19
1.12235e-05
-1.43773e-18
1.12235e-05
-2.55447e-19
1.12235e-05
6.31053e-19
1.12235e-05
3.61365e-19
1.12235e-05
-5.55627e-19
1.12235e-05
-3.09966e-18
-1.40233e-18
1.12235e-05
1.12235e-05
3.04667e-20
1.12235e-05
8.5868e-20
1.12235e-05
1.06885e-19
1.12235e-05
1.20874e-19
1.12235e-05
1.34864e-19
1.12235e-05
1.35869e-19
1.12235e-05
1.27201e-19
1.12235e-05
1.21562e-19
1.12235e-05
1.16017e-19
1.12235e-05
1.12774e-19
1.12235e-05
1.0752e-19
1.12235e-05
1.08222e-19
1.12235e-05
1.17791e-19
1.12235e-05
1.14866e-19
1.12235e-05
1.24223e-19
1.12235e-05
1.28934e-19
1.12235e-05
1.30483e-19
1.12235e-05
1.29503e-19
1.12235e-05
1.20517e-19
1.12235e-05
9.48015e-20
1.12235e-05
8.49151e-20
1.12235e-05
7.45521e-20
1.12235e-05
2.70918e-20
1.12235e-05
2.38493e-20
1.12235e-05
6.29054e-20
1.12235e-05
3.719e-21
1.12235e-05
-8.44783e-20
1.12235e-05
1.54186e-20
1.12235e-05
1.45438e-19
1.12235e-05
6.92714e-20
1.12235e-05
4.20869e-21
1.12235e-05
1.14151e-19
1.12235e-05
2.12539e-19
1.12235e-05
1.6083e-19
1.12235e-05
-2.29493e-20
1.12235e-05
-3.6343e-20
1.12235e-05
2.57763e-19
1.12235e-05
1.56291e-19
1.12235e-05
-8.56694e-20
1.12235e-05
2.22426e-19
1.12235e-05
1.8423e-19
1.12235e-05
-1.56542e-19
1.12235e-05
3.6519e-19
1.12235e-05
4.61037e-19
1.12235e-05
-5.27291e-19
1.12235e-05
2.79653e-20
1.12235e-05
1.43171e-18
1.12235e-05
-4.69375e-19
1.12235e-05
-1.93779e-18
1.12235e-05
1.24702e-18
1.12235e-05
1.43923e-18
1.12235e-05
-2.04288e-18
1.12235e-05
-3.38138e-19
1.12235e-05
1.97713e-18
1.12235e-05
-5.81382e-19
1.12235e-05
-1.17133e-18
1.12235e-05
7.97058e-19
1.12235e-05
-2.99095e-19
1.12235e-05
-2.08361e-18
-3.31349e-19
1.12235e-05
1.12235e-05
2.21023e-21
1.12235e-05
1.93097e-20
1.12235e-05
3.39607e-20
1.12235e-05
4.47736e-20
1.12235e-05
6.98802e-20
1.12235e-05
8.649e-20
1.12235e-05
9.43912e-20
1.12235e-05
1.07467e-19
1.12235e-05
1.15448e-19
1.12235e-05
1.07838e-19
1.12235e-05
1.03219e-19
1.12235e-05
1.0482e-19
1.12235e-05
1.02107e-19
1.12235e-05
9.35574e-20
1.12235e-05
8.07725e-20
1.12235e-05
8.77473e-20
1.12235e-05
9.45103e-20
1.12235e-05
1.01498e-19
1.12235e-05
9.98705e-20
1.12235e-05
9.69323e-20
1.12235e-05
7.37713e-20
1.12235e-05
5.82468e-20
1.12235e-05
4.7778e-20
1.12235e-05
3.16314e-20
1.12235e-05
1.43069e-20
1.12235e-05
1.27187e-20
1.12235e-05
3.20814e-20
1.12235e-05
5.24631e-20
1.12235e-05
5.18543e-20
1.12235e-05
8.52856e-20
1.12235e-05
5.53351e-20
1.12235e-05
3.38548e-20
1.12235e-05
1.60658e-19
1.12235e-05
8.64503e-20
1.12235e-05
8.47033e-21
1.12235e-05
1.36888e-19
1.12235e-05
9.17575e-20
1.12235e-05
-1.0985e-20
1.12235e-05
5.3866e-20
1.12235e-05
7.77814e-20
1.12235e-05
4.47869e-20
1.12235e-05
7.68682e-20
1.12235e-05
3.38813e-21
1.12235e-05
-1.90185e-20
1.12235e-05
1.4835e-19
1.12235e-05
-4.65471e-20
1.12235e-05
-2.39684e-19
1.12235e-05
-2.15332e-20
1.12235e-05
5.86306e-21
1.12235e-05
1.22634e-19
1.12235e-05
1.15726e-19
1.12235e-05
-5.40606e-19
1.12235e-05
-4.92523e-19
1.12235e-05
1.05032e-19
1.12235e-05
-4.8494e-19
1.12235e-05
-1.26933e-18
1.12235e-05
-1.16635e-18
1.12235e-05
5.65461e-19
1.12235e-05
1.28187e-18
-4.67822e-18
1.12235e-05
1.12235e-05
-1.4426e-21
1.12235e-05
1.53392e-20
1.12235e-05
3.43048e-20
1.12235e-05
5.73732e-20
1.12235e-05
7.00258e-20
1.12235e-05
7.573e-20
1.12235e-05
7.46712e-20
1.12235e-05
7.41286e-20
1.12235e-05
6.87023e-20
1.12235e-05
7.62594e-20
1.12235e-05
6.30378e-20
1.12235e-05
5.44086e-20
1.12235e-05
4.57398e-20
1.12235e-05
4.02473e-20
1.12235e-05
5.14573e-20
1.12235e-05
5.03588e-20
1.12235e-05
5.64071e-20
1.12235e-05
8.21754e-20
1.12235e-05
9.26178e-20
1.12235e-05
9.82426e-20
1.12235e-05
1.50044e-19
1.12235e-05
1.63107e-19
1.12235e-05
1.25718e-19
1.12235e-05
9.46295e-20
1.12235e-05
7.71991e-20
1.12235e-05
7.89594e-20
1.12235e-05
5.8882e-20
1.12235e-05
5.02793e-20
1.12235e-05
1.00228e-19
1.12235e-05
5.19734e-20
1.12235e-05
2.27508e-20
1.12235e-05
8.85017e-20
1.12235e-05
1.20808e-19
1.12235e-05
1.02809e-19
1.12235e-05
5.89879e-20
1.12235e-05
1.20067e-19
1.12235e-05
1.1157e-20
1.12235e-05
-1.08751e-19
1.12235e-05
3.72337e-19
1.12235e-05
1.72093e-19
1.12235e-05
-4.35825e-19
1.12235e-05
2.1197e-19
1.12235e-05
4.70289e-19
1.12235e-05
-5.13011e-19
1.12235e-05
-3.21621e-19
1.12235e-05
6.88929e-19
1.12235e-05
-1.67276e-19
1.12235e-05
-9.17244e-19
1.12235e-05
5.21561e-19
1.12235e-05
5.42048e-19
1.12235e-05
-1.27371e-18
1.12235e-05
-4.30121e-19
1.12235e-05
1.09502e-18
1.12235e-05
-6.98537e-19
1.12235e-05
-1.60277e-18
1.12235e-05
6.64405e-19
1.12235e-05
9.42801e-19
1.12235e-05
-2.59888e-18
1.12235e-05
-2.80507e-18
3.76586e-18
1.12235e-05
1.12235e-05
3.87782e-21
1.12235e-05
2.98182e-20
1.12235e-05
5.12058e-20
1.12235e-05
5.98879e-20
1.12235e-05
8.39092e-20
1.12235e-05
1.01207e-19
1.12235e-05
1.0891e-19
1.12235e-05
1.10551e-19
1.12235e-05
9.37163e-20
1.12235e-05
7.52536e-20
1.12235e-05
7.10714e-20
1.12235e-05
5.69365e-20
1.12235e-05
6.63862e-20
1.12235e-05
7.85358e-20
1.12235e-05
6.4401e-20
1.12235e-05
5.88423e-20
1.12235e-05
6.3501e-20
1.12235e-05
7.42477e-20
1.12235e-05
7.95417e-20
1.12235e-05
9.94073e-20
1.12235e-05
8.21754e-20
1.12235e-05
7.0939e-20
1.12235e-05
1.06753e-19
1.12235e-05
1.29517e-19
1.12235e-05
1.06223e-19
1.12235e-05
9.75941e-20
1.12235e-05
1.34771e-19
1.12235e-05
1.09426e-19
1.12235e-05
5.59174e-20
1.12235e-05
1.13264e-19
1.12235e-05
1.39774e-19
1.12235e-05
6.96288e-20
1.12235e-05
4.34369e-20
1.12235e-05
2.02891e-20
1.12235e-05
5.05176e-20
1.12235e-05
7.49757e-20
1.12235e-05
1.31502e-19
1.12235e-05
1.68388e-19
1.12235e-05
-1.76275e-19
1.12235e-05
-2.48684e-20
1.12235e-05
4.18024e-19
1.12235e-05
-1.39522e-19
1.12235e-05
-3.04575e-19
1.12235e-05
4.91584e-19
1.12235e-05
9.49074e-20
1.12235e-05
-6.09096e-19
1.12235e-05
2.42556e-19
1.12235e-05
4.76932e-19
1.12235e-05
-7.24147e-19
1.12235e-05
-3.25843e-19
1.12235e-05
8.87889e-19
1.12235e-05
-1.4156e-19
1.12235e-05
-9.22935e-19
1.12235e-05
3.62265e-19
1.12235e-05
5.74752e-19
1.12235e-05
-4.43117e-19
1.12235e-05
-3.04085e-19
1.12235e-05
4.56379e-19
1.12235e-05
3.28569e-19
4.50383e-20
1.12235e-05
1.12235e-05
5.16161e-22
1.12235e-05
3.42387e-20
1.12235e-05
5.60895e-20
1.12235e-05
6.93508e-20
1.12235e-05
6.02717e-20
1.12235e-05
6.42025e-20
1.12235e-05
5.65792e-20
1.12235e-05
3.57871e-20
1.12235e-05
2.89315e-20
1.12235e-05
4.05782e-20
1.12235e-05
4.47604e-20
1.12235e-05
3.58136e-20
1.12235e-05
3.07049e-20
1.12235e-05
5.48321e-20
1.12235e-05
7.3136e-20
1.12235e-05
7.95417e-20
1.12235e-05
6.75773e-20
1.12235e-05
5.97688e-20
1.12235e-05
7.06081e-20
1.12235e-05
7.10714e-20
1.12235e-05
7.95946e-20
1.12235e-05
9.79382e-20
1.12235e-05
1.10961e-19
1.12235e-05
1.18439e-19
1.12235e-05
1.51579e-19
1.12235e-05
1.52704e-19
1.12235e-05
1.24329e-19
1.12235e-05
1.07931e-19
1.12235e-05
7.86947e-20
1.12235e-05
7.67888e-20
1.12235e-05
1.03682e-19
1.12235e-05
8.52459e-20
1.12235e-05
1.24805e-20
1.12235e-05
5.22116e-20
1.12235e-05
9.93014e-20
1.12235e-05
2.17185e-20
1.12235e-05
3.97179e-20
1.12235e-05
1.00823e-19
1.12235e-05
9.83352e-21
1.12235e-05
6.44539e-20
1.12235e-05
1.13661e-19
1.12235e-05
-3.09432e-20
1.12235e-05
-1.79068e-20
1.12235e-05
9.23134e-20
1.12235e-05
-4.99485e-20
1.12235e-05
-7.51477e-20
1.12235e-05
2.86496e-19
1.12235e-05
1.49051e-19
1.12235e-05
-2.20983e-19
1.12235e-05
4.18686e-19
1.12235e-05
3.64211e-19
1.12235e-05
-6.87288e-19
1.12235e-05
3.16592e-19
1.12235e-05
9.56035e-19
1.12235e-05
-8.95301e-19
1.12235e-05
-6.05761e-20
1.12235e-05
1.52597e-18
1.12235e-05
-9.4828e-19
1.12235e-05
-1.07531e-18
1.91204e-18
1.12235e-05
1.12235e-05
3.44901e-20
1.12235e-05
5.55865e-22
1.12235e-05
-1.32746e-20
1.12235e-05
-3.33255e-20
1.12235e-05
-4.21134e-20
1.12235e-05
-4.48398e-20
1.12235e-05
-3.3974e-20
1.12235e-05
-1.18188e-20
1.12235e-05
-6.61744e-22
1.12235e-05
-4.30134e-21
1.12235e-05
1.78671e-20
1.12235e-05
4.98955e-20
1.12235e-05
6.87023e-20
1.12235e-05
5.39454e-20
1.12235e-05
6.85964e-20
1.12235e-05
7.92638e-20
1.12235e-05
8.16725e-20
1.12235e-05
7.01449e-20
1.12235e-05
6.79612e-20
1.12235e-05
4.98029e-20
1.12235e-05
5.05573e-20
1.12235e-05
9.88249e-20
1.12235e-05
9.61647e-20
1.12235e-05
1.09916e-19
1.12235e-05
1.61241e-19
1.12235e-05
1.47463e-19
1.12235e-05
1.2998e-19
1.12235e-05
1.31078e-19
1.12235e-05
1.46312e-19
1.12235e-05
1.39033e-19
1.12235e-05
7.79667e-20
1.12235e-05
7.10714e-20
1.12235e-05
1.4254e-19
1.12235e-05
1.22992e-19
1.12235e-05
4.65074e-20
1.12235e-05
8.9759e-20
1.12235e-05
9.58471e-20
1.12235e-05
3.854e-20
1.12235e-05
8.18313e-20
1.12235e-05
8.18975e-20
1.12235e-05
-5.53483e-20
1.12235e-05
-1.59745e-20
1.12235e-05
1.58633e-19
1.12235e-05
9.72897e-20
1.12235e-05
7.00787e-20
1.12235e-05
2.11321e-19
1.12235e-05
2.93153e-20
1.12235e-05
7.49227e-20
1.12235e-05
3.96306e-19
1.12235e-05
-1.55656e-19
1.12235e-05
-8.43062e-21
1.12235e-05
9.96534e-19
1.12235e-05
-1.49515e-19
1.12235e-05
-5.1943e-19
1.12235e-05
1.36788e-18
1.12235e-05
8.1699e-20
1.12235e-05
-9.26085e-19
1.12235e-05
1.92632e-18
1.12235e-05
9.20209e-19
-1.18906e-18
1.12235e-05
1.12235e-05
-3.54695e-20
1.12235e-05
-4.78309e-20
1.12235e-05
-5.37337e-20
1.12235e-05
-6.77229e-20
1.12235e-05
-8.04417e-20
1.12235e-05
-9.22737e-20
1.12235e-05
-8.28504e-20
1.12235e-05
-5.44219e-20
1.12235e-05
-3.57077e-20
1.12235e-05
8.52327e-21
1.12235e-05
2.58742e-20
1.12235e-05
5.62086e-20
1.12235e-05
6.48113e-20
1.12235e-05
5.86041e-20
1.12235e-05
6.01129e-20
1.12235e-05
7.12302e-20
1.12235e-05
7.28184e-20
1.12235e-05
7.44198e-20
1.12235e-05
7.17993e-20
1.12235e-05
7.30037e-20
1.12235e-05
8.03358e-20
1.12235e-05
8.78797e-20
1.12235e-05
9.47221e-20
1.12235e-05
8.76811e-20
1.12235e-05
1.09744e-19
1.12235e-05
1.08063e-19
1.12235e-05
7.0264e-20
1.12235e-05
8.72709e-20
1.12235e-05
1.15885e-19
1.12235e-05
1.0486e-19
1.12235e-05
1.30747e-19
1.12235e-05
1.2061e-19
1.12235e-05
9.07252e-20
1.12235e-05
1.04463e-19
1.12235e-05
8.87399e-20
1.12235e-05
7.11111e-20
1.12235e-05
8.97061e-20
1.12235e-05
5.9332e-20
1.12235e-05
3.31931e-20
1.12235e-05
1.07957e-19
1.12235e-05
1.77877e-19
1.12235e-05
1.344e-19
1.12235e-05
6.1926e-20
1.12235e-05
2.22478e-20
1.12235e-05
1.20345e-19
1.12235e-05
1.74793e-19
1.12235e-05
-6.37922e-20
1.12235e-05
1.03722e-19
1.12235e-05
3.15295e-19
1.12235e-05
-4.19136e-19
1.12235e-05
2.74756e-20
1.12235e-05
5.36953e-19
1.12235e-05
-9.44111e-19
1.12235e-05
1.14482e-20
1.12235e-05
9.66544e-19
1.12235e-05
-1.07101e-18
1.12235e-05
-7.54124e-20
1.12235e-05
1.55073e-18
1.12235e-05
-7.69476e-20
-6.61877e-20
1.12235e-05
1.12235e-05
-1.6676e-21
1.12235e-05
1.20305e-20
1.12235e-05
1.06409e-20
1.12235e-05
2.08847e-20
1.12235e-05
3.63033e-20
1.12235e-05
5.81276e-20
1.12235e-05
7.10184e-20
1.12235e-05
6.67171e-20
1.12235e-05
7.07934e-20
1.12235e-05
7.29772e-20
1.12235e-05
6.81597e-20
1.12235e-05
6.67833e-20
1.12235e-05
7.05552e-20
1.12235e-05
7.26992e-20
1.12235e-05
6.03511e-20
1.12235e-05
3.15255e-20
1.12235e-05
2.70653e-20
1.12235e-05
3.3471e-20
1.12235e-05
3.28358e-20
1.12235e-05
6.08011e-20
1.12235e-05
8.06667e-20
1.12235e-05
7.75962e-20
1.12235e-05
1.15514e-19
1.12235e-05
1.32084e-19
1.12235e-05
6.21643e-20
1.12235e-05
1.04847e-19
1.12235e-05
1.55867e-19
1.12235e-05
1.00956e-19
1.12235e-05
1.28048e-19
1.12235e-05
1.6533e-19
1.12235e-05
9.99631e-20
1.12235e-05
1.43916e-19
1.12235e-05
2.45917e-19
1.12235e-05
1.51407e-19
1.12235e-05
1.14217e-20
1.12235e-05
1.39059e-19
1.12235e-05
2.51992e-19
1.12235e-05
1.10392e-19
1.12235e-05
2.25787e-20
1.12235e-05
1.36147e-19
1.12235e-05
1.27346e-19
1.12235e-05
-1.31158e-20
1.12235e-05
2.88653e-20
1.12235e-05
1.39218e-19
1.12235e-05
-4.05914e-20
1.12235e-05
2.8455e-21
1.12235e-05
4.24205e-19
1.12235e-05
1.62352e-19
1.12235e-05
-1.31356e-19
1.12235e-05
5.61292e-19
1.12235e-05
-1.92925e-19
1.12235e-05
-8.3892e-19
1.12235e-05
8.9317e-19
1.12235e-05
-3.6572e-19
1.12235e-05
-1.78082e-18
1.12235e-05
9.18634e-19
1.12235e-05
6.29319e-20
1.12235e-05
-2.37513e-18
1.12235e-05
-2.77086e-19
-8.28636e-20
1.12235e-05
1.12235e-05
1.47569e-20
1.12235e-05
2.57419e-20
1.12235e-05
2.71315e-20
1.12235e-05
4.5356e-20
1.12235e-05
5.53351e-20
1.12235e-05
6.68627e-20
1.12235e-05
7.45389e-20
1.12235e-05
1.09955e-19
1.12235e-05
1.38093e-19
1.12235e-05
1.56582e-19
1.12235e-05
1.45888e-19
1.12235e-05
1.02795e-19
1.12235e-05
7.21037e-20
1.12235e-05
5.05837e-20
1.12235e-05
3.95326e-20
1.12235e-05
4.84529e-20
1.12235e-05
3.16711e-20
1.12235e-05
1.93626e-20
1.12235e-05
2.01832e-20
1.12235e-05
4.64677e-20
1.12235e-05
7.99255e-20
1.12235e-05
9.22604e-20
1.12235e-05
1.17499e-19
1.12235e-05
1.64682e-19
1.12235e-05
1.67924e-19
1.12235e-05
1.68639e-19
1.12235e-05
2.26634e-19
1.12235e-05
2.29559e-19
1.12235e-05
2.10488e-19
1.12235e-05
3.06044e-19
1.12235e-05
3.04773e-19
1.12235e-05
2.04386e-19
1.12235e-05
3.78637e-19
1.12235e-05
5.351e-19
1.12235e-05
2.48525e-19
1.12235e-05
5.46998e-20
1.12235e-05
2.98275e-19
1.12235e-05
5.20899e-19
1.12235e-05
3.28741e-19
1.12235e-05
-1.3988e-19
1.12235e-05
1.52439e-19
1.12235e-05
6.66033e-19
1.12235e-05
1.40872e-19
1.12235e-05
-2.99386e-19
1.12235e-05
-3.07155e-19
1.12235e-05
-7.97376e-19
1.12235e-05
-8.21768e-19
1.12235e-05
6.87023e-20
1.12235e-05
1.48276e-18
1.12235e-05
7.55434e-19
1.12235e-05
-2.66025e-18
1.12235e-05
-9.0663e-19
1.12235e-05
2.51496e-18
1.12235e-05
-7.9371e-19
1.12235e-05
-2.85879e-18
1.12235e-05
7.10449e-20
1.12235e-05
4.91835e-19
1.12235e-05
-1.46934e-18
1.12235e-05
-1.35677e-18
9.58285e-19
1.12235e-05
1.12235e-05
3.02417e-20
1.12235e-05
5.61689e-20
1.12235e-05
6.93508e-20
1.12235e-05
9.28692e-20
1.12235e-05
1.08989e-19
1.12235e-05
1.09969e-19
1.12235e-05
1.13727e-19
1.12235e-05
1.12735e-19
1.12235e-05
1.25176e-19
1.12235e-05
1.30761e-19
1.12235e-05
1.29106e-19
1.12235e-05
8.87664e-20
1.12235e-05
6.70347e-20
1.12235e-05
3.944e-20
1.12235e-05
1.88332e-20
1.12235e-05
4.53957e-21
1.12235e-05
-7.98064e-21
1.12235e-05
-1.31025e-20
1.12235e-05
-3.90429e-21
1.12235e-05
2.22611e-20
1.12235e-05
1.87274e-20
1.12235e-05
7.33875e-20
1.12235e-05
1.12404e-19
1.12235e-05
1.19193e-19
1.12235e-05
1.70532e-19
1.12235e-05
1.99516e-19
1.12235e-05
1.59388e-19
1.12235e-05
1.11967e-19
1.12235e-05
1.58925e-19
1.12235e-05
1.99198e-19
1.12235e-05
7.54124e-20
1.12235e-05
1.14482e-20
1.12235e-05
6.36995e-20
1.12235e-05
-1.84362e-20
1.12235e-05
-5.61292e-20
1.12235e-05
1.06859e-19
1.12235e-05
1.4745e-19
1.12235e-05
-1.63173e-19
1.12235e-05
-2.77297e-19
1.12235e-05
6.09533e-19
1.12235e-05
9.49868e-19
1.12235e-05
-5.46032e-19
1.12235e-05
-1.63567e-18
1.12235e-05
1.50056e-18
1.12235e-05
5.71743e-18
1.12235e-05
6.28393e-19
1.12235e-05
-9.42143e-18
1.12235e-05
-6.18416e-18
1.12235e-05
8.1763e-18
1.12235e-05
1.02642e-17
1.12235e-05
-5.32372e-18
1.12235e-05
-1.36093e-17
1.12235e-05
5.7979e-18
1.12235e-05
1.17072e-17
1.12235e-05
-7.33344e-18
1.12235e-05
-6.39236e-18
1.12235e-05
6.69872e-18
1.12235e-05
1.41382e-18
1.12235e-05
-5.32454e-18
-1.59712e-18
1.12235e-05
1.12235e-05
-2.1242e-20
1.12235e-05
2.08714e-20
1.12235e-05
4.73677e-20
1.12235e-05
6.72994e-20
1.12235e-05
8.66224e-20
1.12235e-05
1.08817e-19
1.12235e-05
1.20557e-19
1.12235e-05
1.11597e-19
1.12235e-05
9.39148e-20
1.12235e-05
8.69003e-20
1.12235e-05
4.95117e-20
1.12235e-05
7.54389e-21
1.12235e-05
2.72242e-20
1.12235e-05
2.11361e-20
1.12235e-05
-2.9752e-20
1.12235e-05
-4.42575e-20
1.12235e-05
1.69804e-20
1.12235e-05
-3.77194e-21
1.12235e-05
-8.5643e-20
1.12235e-05
-8.34592e-20
1.12235e-05
-3.50725e-20
1.12235e-05
-2.49742e-20
1.12235e-05
-2.52654e-20
1.12235e-05
-1.97597e-20
1.12235e-05
-2.23934e-20
1.12235e-05
-6.84376e-20
1.12235e-05
-6.42554e-20
1.12235e-05
2.00112e-20
1.12235e-05
-7.91049e-20
1.12235e-05
-2.28831e-19
1.12235e-05
-8.34989e-20
1.12235e-05
1.05747e-20
1.12235e-05
-2.81678e-19
1.12235e-05
-3.2129e-19
1.12235e-05
8.48356e-20
1.12235e-05
7.47242e-20
1.12235e-05
-3.25128e-19
1.12235e-05
-1.09042e-19
1.12235e-05
3.4105e-19
1.12235e-05
-1.3628e-19
1.12235e-05
-6.66668e-19
1.12235e-05
3.58599e-19
1.12235e-05
1.60691e-18
1.12235e-05
-1.1278e-18
1.12235e-05
-5.47412e-18
1.12235e-05
-1.60133e-18
1.12235e-05
7.96934e-18
1.12235e-05
5.94007e-18
1.12235e-05
-6.62167e-18
1.12235e-05
-8.64414e-18
1.12235e-05
5.44043e-18
1.12235e-05
1.10226e-17
1.12235e-05
-5.32835e-18
1.12235e-05
-8.89083e-18
1.12235e-05
5.82985e-18
1.12235e-05
5.10798e-18
1.12235e-05
-4.71956e-18
1.12235e-05
-2.48317e-18
1.12235e-05
1.38385e-18
-2.1164e-18
1.12235e-05
1.12235e-05
3.87385e-20
1.12235e-05
3.27166e-20
1.12235e-05
4.80162e-20
1.12235e-05
5.59306e-20
1.12235e-05
7.65109e-20
1.12235e-05
9.11884e-20
1.12235e-05
9.48412e-20
1.12235e-05
8.559e-20
1.12235e-05
6.21378e-20
1.12235e-05
3.33784e-20
1.12235e-05
2.75286e-20
1.12235e-05
3.2002e-20
1.12235e-05
5.9557e-21
1.12235e-05
-3.11549e-20
1.12235e-05
-1.3354e-20
1.12235e-05
-1.06938e-20
1.12235e-05
-7.67227e-20
1.12235e-05
-6.46524e-20
1.12235e-05
3.52975e-20
1.12235e-05
4.64809e-20
1.12235e-05
-5.65262e-20
1.12235e-05
-7.23816e-20
1.12235e-05
3.82488e-21
1.12235e-05
-2.7158e-20
1.12235e-05
-1.05336e-19
1.12235e-05
-9.81896e-20
1.12235e-05
-6.94699e-20
1.12235e-05
-6.74318e-20
1.12235e-05
-8.22019e-20
1.12235e-05
-8.09314e-20
1.12235e-05
-9.66147e-21
1.12235e-05
-5.00279e-21
1.12235e-05
-4.83735e-20
1.12235e-05
1.79995e-20
1.12235e-05
7.29507e-20
1.12235e-05
4.99352e-20
1.12235e-05
2.55036e-20
1.12235e-05
6.10128e-20
1.12235e-05
7.48698e-20
1.12235e-05
-4.91147e-20
1.12235e-05
-1.29715e-19
1.12235e-05
1.6676e-20
1.12235e-05
9.9844e-20
1.12235e-05
2.42728e-20
1.12235e-05
4.33999e-19
1.12235e-05
1.8279e-18
1.12235e-05
2.23298e-18
1.12235e-05
3.80424e-19
1.12235e-05
-3.26871e-18
1.12235e-05
-3.34912e-18
1.12235e-05
1.93412e-18
1.12235e-05
3.63052e-18
1.12235e-05
-3.41239e-18
1.12235e-05
-2.83024e-18
1.12235e-05
4.01287e-18
1.12235e-05
-1.7114e-19
1.12235e-05
-4.90511e-18
1.12235e-05
-2.28844e-19
1.12235e-05
1.3387e-18
-3.25367e-18
1.12235e-05
1.12235e-05
-4.92338e-21
1.12235e-05
-1.85288e-21
1.12235e-05
3.28225e-21
1.12235e-05
1.78142e-20
1.12235e-05
1.46378e-20
1.12235e-05
2.77933e-22
1.12235e-05
-1.57363e-20
1.12235e-05
-8.64238e-21
1.12235e-05
-1.85288e-21
1.12235e-05
-2.32669e-20
1.12235e-05
-3.31931e-20
1.12235e-05
-2.2989e-20
1.12235e-05
-8.1924e-21
1.12235e-05
2.40875e-21
1.12235e-05
-2.47757e-20
1.12235e-05
-2.99373e-20
1.12235e-05
3.22137e-20
1.12235e-05
5.46469e-20
1.12235e-05
3.86459e-20
1.12235e-05
5.63806e-20
1.12235e-05
9.44839e-20
1.12235e-05
4.14384e-20
1.12235e-05
-3.68724e-20
1.12235e-05
-2.84815e-20
1.12235e-05
-1.16335e-20
1.12235e-05
-6.12378e-20
1.12235e-05
-8.82635e-20
1.12235e-05
-1.14085e-20
1.12235e-05
1.67951e-20
1.12235e-05
-4.86382e-20
1.12235e-05
1.59613e-20
1.12235e-05
1.54081e-19
1.12235e-05
1.06276e-20
1.12235e-05
-4.30663e-20
1.12235e-05
2.40213e-19
1.12235e-05
2.36243e-19
1.12235e-05
4.07238e-20
1.12235e-05
1.20477e-19
1.12235e-05
2.54745e-19
1.12235e-05
1.05628e-19
1.12235e-05
1.57495e-20
1.12235e-05
2.50311e-19
1.12235e-05
1.61241e-19
1.12235e-05
-2.09588e-19
1.12235e-05
1.44962e-19
1.12235e-05
4.17574e-19
1.12235e-05
-3.20059e-19
1.12235e-05
-5.64217e-19
1.12235e-05
1.21827e-19
1.12235e-05
1.92118e-19
1.12235e-05
-8.22681e-20
1.12235e-05
9.74882e-20
1.12235e-05
-7.14115e-19
1.12235e-05
-1.44161e-18
1.12235e-05
-2.46434e-20
1.12235e-05
-2.84749e-19
1.12235e-05
-3.28441e-18
1.12235e-05
-1.59574e-18
1.12235e-05
4.47644e-19
-4.37943e-18
1.12235e-05
1.12235e-05
-1.20835e-20
1.12235e-05
-2.63771e-20
1.12235e-05
-2.96726e-20
1.12235e-05
-2.62183e-20
1.12235e-05
-1.87274e-20
1.12235e-05
-1.7748e-20
1.12235e-05
-2.19567e-20
1.12235e-05
-1.67686e-20
1.12235e-05
-1.38569e-20
1.12235e-05
1.08129e-20
1.12235e-05
3.23858e-20
1.12235e-05