/*--------------------------------*- C++ -*----------------------------------*\
  =========                 |
  \\      /  F ield         | OpenFOAM: The Open Source CFD Toolbox
   \\    /   O peration     | Website:  https://openfoam.org
    \\  /    A nd           | Version:  9
     \\/     M anipulation  |
\*---------------------------------------------------------------------------*/
FoamFile
{
    format      ascii;
    class       volVectorField;
    location    "0.001";
    object      U;
}
// * * * * * * * * * * * * * * * * * * * * * * * * * * * * * * * * * * * * * //

dimensions      [0 1 -1 0 0 0 0];

internalField   nonuniform List<vector> 
36400
(
(165.65 5.18123e-13 0)
(165.65 8.10829e-13 0)
(165.65 8.81493e-13 0)
(165.65 9.72142e-13 0)
(165.65 1.10309e-12 0)
(165.65 1.21754e-12 0)
(165.65 1.10347e-12 0)
(165.65 8.64085e-13 0)
(165.65 6.48544e-13 0)
(165.65 4.7212e-13 0)
(165.65 1.52602e-13 0)
(165.65 3.34712e-14 0)
(165.65 1.56694e-13 0)
(165.65 3.11456e-13 0)
(165.65 3.583e-14 0)
(165.65 5.70383e-14 0)
(165.65 2.31395e-13 0)
(165.65 5.33144e-14 0)
(165.65 -2.14782e-13 0)
(165.65 -2.42185e-13 0)
(165.65 3.83227e-14 0)
(165.65 5.98283e-13 0)
(165.65 2.21376e-13 0)
(165.65 -7.30676e-13 0)
(165.65 -8.0003e-13 0)
(165.65 -5.53468e-14 0)
(165.65 9.60217e-14 0)
(165.65 3.47443e-13 0)
(165.65 9.72421e-13 0)
(165.65 1.05146e-13 0)
(165.65 -1.31714e-13 0)
(165.65 1.2529e-12 0)
(165.65 1.06834e-12 0)
(165.65 -6.72723e-14 0)
(165.65 1.00862e-13 0)
(165.65 6.57453e-13 0)
(165.65 2.46805e-13 0)
(165.65 -7.18634e-14 0)
(165.65 9.74189e-14 0)
(165.65 -7.55944e-13 0)
(165.65 -3.8118e-13 0)
(165.65 4.30488e-13 0)
(165.65 -4.18471e-13 0)
(165.65 -2.64418e-13 0)
(165.65 9.6014e-13 0)
(165.65 -1.28415e-12 0)
(165.65 -1.47911e-12 0)
(165.65 3.13306e-12 0)
(165.65 -1.43497e-12 0)
(165.65 -4.6237e-12 0)
(165.65 2.29619e-12 0)
(165.65 7.23338e-13 0)
(165.65 -4.33797e-12 0)
(165.65 -6.38851e-13 0)
(165.65 -8.47573e-13 0)
(165.65 -2.06694e-12 0)
(165.65 9.22272e-13 0)
(165.65 -1.86656e-12 0)
(165.65 -3.62881e-12 0)
(165.65 8.78011e-13 0)
(165.65 3.26438e-13 0)
(165.65 7.32165e-13 0)
(165.65 1.08303e-12 0)
(165.65 1.37511e-12 0)
(165.65 1.6292e-12 0)
(165.65 1.60744e-12 0)
(165.65 1.29062e-12 0)
(165.65 1.21552e-12 0)
(165.65 8.23932e-13 0)
(165.65 4.84838e-13 0)
(165.65 1.79907e-13 0)
(165.65 -8.78484e-14 0)
(165.65 -1.53472e-13 0)
(165.65 9.7208e-15 0)
(165.65 -2.79856e-14 0)
(165.65 -2.75424e-14 0)
(165.65 2.369e-13 0)
(165.65 3.22925e-13 0)
(165.65 2.31882e-13 0)
(165.65 -8.351e-14 0)
(165.65 1.92454e-13 0)
(165.65 7.93731e-13 0)
(165.65 2.07917e-13 0)
(165.65 -1.34844e-12 0)
(165.65 -1.43638e-12 0)
(165.65 -3.51273e-13 0)
(165.65 -3.07122e-13 0)
(165.65 1.71294e-13 0)
(165.65 1.25625e-12 0)
(165.65 7.39071e-13 0)
(165.65 1.18426e-13 0)
(165.65 9.62145e-13 0)
(165.65 1.69105e-12 0)
(165.65 1.26834e-12 0)
(165.65 -2.17686e-13 0)
(165.65 -3.95208e-13 0)
(165.65 6.63611e-13 0)
(165.65 8.21998e-13 0)
(165.65 8.76233e-14 0)
(165.65 -3.13212e-13 0)
(165.65 3.74812e-13 0)
(165.65 -1.17567e-13 0)
(165.65 -4.50516e-13 0)
(165.65 1.30749e-12 0)
(165.65 3.7047e-13 0)
(165.65 -2.76936e-12 0)
(165.65 8.06082e-13 0)
(165.65 3.90344e-12 0)
(165.65 -2.98544e-12 0)
(165.65 -2.5098e-12 0)
(165.65 3.51399e-12 0)
(165.65 -2.47942e-12 0)
(165.65 -6.05634e-12 0)
(165.65 -2.22034e-12 0)
(165.65 -5.1066e-12 0)
(165.65 -7.18027e-12 0)
(165.65 -5.41106e-12 0)
(165.65 -1.28441e-11 0)
(165.65 -1.55878e-11 0)
(165.65 -1.0068e-11 0)
(165.65 -1.23125e-13 0)
(165.65 6.56626e-14 0)
(165.65 3.0212e-13 0)
(165.65 3.87242e-13 0)
(165.65 6.29781e-13 0)
(165.65 7.87112e-13 0)
(165.65 8.40238e-13 0)
(165.65 9.69546e-13 0)
(165.65 8.24521e-13 0)
(165.65 6.15239e-13 0)
(165.65 5.37744e-13 0)
(165.65 1.74097e-13 0)
(165.65 -1.52189e-13 0)
(165.65 -2.09616e-13 0)
(165.65 1.55887e-15 0)
(165.65 1.52728e-13 0)
(165.65 -1.30328e-14 0)
(165.65 1.16869e-13 0)
(165.65 2.25964e-13 0)
(165.65 5.24391e-14 0)
(165.65 2.75058e-14 0)
(165.65 2.94433e-13 0)
(165.65 3.42104e-13 0)
(165.65 3.71525e-13 0)
(165.65 4.63113e-13 0)
(165.65 2.44544e-13 0)
(165.65 2.9101e-13 0)
(165.65 1.40229e-13 0)
(165.65 -3.38099e-13 0)
(165.65 3.25122e-13 0)
(165.65 5.24611e-13 0)
(165.65 -2.33371e-13 0)
(165.65 2.52918e-13 0)
(165.65 6.0632e-13 0)
(165.65 -4.59337e-13 0)
(165.65 6.25138e-13 0)
(165.65 1.74041e-12 0)
(165.65 2.6253e-13 0)
(165.65 2.6022e-14 0)
(165.65 1.55584e-12 0)
(165.65 1.04783e-12 0)
(165.65 2.2616e-13 0)
(165.65 2.08928e-12 0)
(165.65 3.1778e-12 0)
(165.65 -2.01209e-13 0)
(165.65 1.04514e-12 0)
(165.65 4.83976e-12 0)
(165.65 6.60325e-13 0)
(165.65 -6.90165e-13 0)
(165.65 4.65541e-12 0)
(165.65 1.11259e-12 0)
(165.65 -6.03001e-12 0)
(165.65 -2.42936e-12 0)
(165.65 1.44196e-12 0)
(165.65 -6.1559e-12 0)
(165.65 -1.37116e-11 0)
(165.65 -1.62688e-11 0)
(165.65 -1.81802e-11 0)
(165.65 -2.97915e-12 0)
(165.65 -4.59315e-12 0)
(165.65 -7.10351e-14 0)
(165.65 -1.42422e-13 0)
(165.65 6.88854e-14 0)
(165.65 1.97838e-13 0)
(165.65 3.44661e-13 0)
(165.65 5.4764e-13 0)
(165.65 7.64641e-13 0)
(165.65 7.55521e-13 0)
(165.65 7.84014e-13 0)
(165.65 8.16095e-13 0)
(165.65 7.11491e-13 0)
(165.65 6.91401e-13 0)
(165.65 8.8458e-13 0)
(165.65 9.06383e-13 0)
(165.65 8.00197e-13 0)
(165.65 7.04387e-13 0)
(165.65 5.7945e-13 0)
(165.65 4.79962e-13 0)
(165.65 3.5785e-13 0)
(165.65 5.8488e-14 0)
(165.65 9.89436e-15 0)
(165.65 -2.68462e-13 0)
(165.65 -2.95515e-13 0)
(165.65 1.1376e-12 0)
(165.65 1.50656e-12 0)
(165.65 4.34069e-13 0)
(165.65 6.83243e-13 0)
(165.65 8.97584e-13 0)
(165.65 -4.5082e-13 0)
(165.65 2.09884e-14 0)
(165.65 8.84515e-13 0)
(165.65 4.04499e-14 0)
(165.65 -6.28223e-13 0)
(165.65 1.27761e-12 0)
(165.65 2.155e-12 0)
(165.65 5.02645e-13 0)
(165.65 2.19331e-12 0)
(165.65 4.6988e-12 0)
(165.65 9.48308e-13 0)
(165.65 -1.31852e-12 0)
(165.65 2.89042e-12 0)
(165.65 6.50922e-12 0)
(165.65 2.87364e-12 0)
(165.65 4.32291e-13 0)
(165.65 6.4209e-12 0)
(165.65 8.68944e-12 0)
(165.65 6.98752e-13 0)
(165.65 2.02431e-12 0)
(165.65 7.50721e-12 0)
(165.65 -2.57987e-12 0)
(165.65 -5.04219e-13 0)
(165.65 6.41492e-12 0)
(165.65 -1.57694e-11 0)
(165.65 -3.52142e-12 0)
(165.65 2.95199e-11 0)
(165.65 -3.92406e-11 0)
(165.65 -8.83071e-11 0)
(165.65 6.98368e-11 0)
(165.65 1.20529e-10 0)
(165.65 -1.73061e-10 0)
(165.65 -1.17274e-13 0)
(165.65 -1.42149e-13 0)
(165.65 -2.71048e-14 0)
(165.65 3.03877e-14 0)
(165.65 5.91917e-15 0)
(165.65 5.07361e-14 0)
(165.65 1.86223e-13 0)
(165.65 3.62079e-13 0)
(165.65 5.4101e-13 0)
(165.65 8.11706e-13 0)
(165.65 1.07587e-12 0)
(165.65 1.59735e-12 0)
(165.65 1.90988e-12 0)
(165.65 2.04512e-12 0)
(165.65 2.06945e-12 0)
(165.65 1.88819e-12 0)
(165.65 1.87734e-12 0)
(165.65 1.61563e-12 0)
(165.65 1.30259e-12 0)
(165.65 9.56997e-13 0)
(165.65 9.26969e-13 0)
(165.65 6.03123e-13 0)
(165.65 -2.47872e-13 0)
(165.65 5.3572e-13 0)
(165.65 1.60998e-12 0)
(165.65 1.07463e-12 0)
(165.65 1.064e-12 0)
(165.65 1.34554e-12 0)
(165.65 1.52997e-12 0)
(165.65 1.84411e-12 0)
(165.65 1.62748e-12 0)
(165.65 9.39534e-13 0)
(165.65 6.10913e-13 0)
(165.65 1.09077e-12 0)
(165.65 1.66837e-12 0)
(165.65 -5.41186e-14 0)
(165.65 -4.60748e-13 0)
(165.65 1.47812e-12 0)
(165.65 1.05425e-12 0)
(165.65 1.04098e-12 0)
(165.65 1.79711e-12 0)
(165.65 1.84245e-12 0)
(165.65 2.57565e-12 0)
(165.65 3.30235e-13 0)
(165.65 1.67409e-12 0)
(165.65 6.50401e-12 0)
(165.65 4.62882e-13 0)
(165.65 -4.16884e-12 0)
(165.65 4.711e-12 0)
(165.65 5.56586e-12 0)
(165.65 -1.05464e-11 0)
(165.65 -2.02406e-11 0)
(165.65 -6.03879e-12 0)
(165.65 1.36285e-11 0)
(165.65 -1.14334e-12 0)
(165.65 -2.8543e-11 0)
(165.65 -1.23591e-11 0)
(165.65 1.47322e-11 0)
(165.65 -1.89174e-11 0)
(165.65 -5.10376e-11 0)
(165.65 -6.46434e-14 0)
(165.65 -1.74724e-14 0)
(165.65 -6.87678e-15 0)
(165.65 -6.34604e-14 0)
(165.65 -1.99886e-13 0)
(165.65 -2.28816e-13 0)
(165.65 8.9401e-14 0)
(165.65 3.94751e-13 0)
(165.65 5.59467e-13 0)
(165.65 1.11418e-12 0)
(165.65 1.736e-12 0)
(165.65 1.99177e-12 0)
(165.65 2.08923e-12 0)
(165.65 2.18783e-12 0)
(165.65 2.2101e-12 0)
(165.65 2.14526e-12 0)
(165.65 2.2035e-12 0)
(165.65 1.99621e-12 0)
(165.65 1.7422e-12 0)
(165.65 1.67457e-12 0)
(165.65 1.26437e-12 0)
(165.65 9.02706e-13 0)
(165.65 1.29233e-12 0)
(165.65 1.04773e-12 0)
(165.65 7.61266e-13 0)
(165.65 1.90897e-12 0)
(165.65 2.39573e-12 0)
(165.65 1.45842e-12 0)
(165.65 1.68979e-12 0)
(165.65 2.30474e-12 0)
(165.65 1.1327e-12 0)
(165.65 4.96998e-13 0)
(165.65 7.80956e-13 0)
(165.65 -1.65018e-12 0)
(165.65 -2.81292e-12 0)
(165.65 6.72297e-13 0)
(165.65 -9.24385e-13 0)
(165.65 -5.33706e-12 0)
(165.65 -1.94373e-12 0)
(165.65 2.19525e-12 0)
(165.65 1.50969e-12 0)
(165.65 1.27286e-13 0)
(165.65 -3.36716e-12 0)
(165.65 -4.86176e-12 0)
(165.65 -3.06329e-13 0)
(165.65 -7.9368e-13 0)
(165.65 -6.43052e-12 0)
(165.65 -3.64511e-12 0)
(165.65 2.21311e-12 0)
(165.65 -1.67142e-12 0)
(165.65 -8.68163e-12 0)
(165.65 3.40964e-13 0)
(165.65 1.29585e-11 0)
(165.65 -1.03579e-11 0)
(165.65 -2.8726e-11 0)
(165.65 3.25157e-11 0)
(165.65 5.4873e-11 0)
(165.65 -8.81968e-11 0)
(165.65 -1.13913e-10 0)
(165.65 1.29135e-10 0)
(165.65 1.88197e-13 0)
(165.65 3.08817e-13 0)
(165.65 5.76379e-13 0)
(165.65 8.95964e-13 0)
(165.65 9.84861e-13 0)
(165.65 1.003e-12 0)
(165.65 1.18719e-12 0)
(165.65 1.25645e-12 0)
(165.65 1.31865e-12 0)
(165.65 1.59279e-12 0)
(165.65 1.80023e-12 0)
(165.65 1.88095e-12 0)
(165.65 1.81064e-12 0)
(165.65 1.89668e-12 0)
(165.65 1.88914e-12 0)
(165.65 1.90459e-12 0)
(165.65 1.85179e-12 0)
(165.65 1.62339e-12 0)
(165.65 1.45116e-12 0)
(165.65 1.32089e-12 0)
(165.65 9.0231e-13 0)
(165.65 7.54763e-13 0)
(165.65 1.59462e-12 0)
(165.65 1.06226e-12 0)
(165.65 9.36166e-14 0)
(165.65 1.36817e-12 0)
(165.65 2.63836e-12 0)
(165.65 1.70423e-12 0)
(165.65 5.28285e-13 0)
(165.65 1.02786e-12 0)
(165.65 1.63594e-12 0)
(165.65 6.62705e-13 0)
(165.65 -1.27138e-12 0)
(165.65 -1.95527e-13 0)
(165.65 1.8263e-12 0)
(165.65 2.89183e-13 0)
(165.65 -2.35961e-12 0)
(165.65 -2.71114e-13 0)
(165.65 1.22862e-12 0)
(165.65 -2.91347e-12 0)
(165.65 -1.2469e-12 0)
(165.65 2.04107e-12 0)
(165.65 -5.2038e-12 0)
(165.65 -4.01892e-12 0)
(165.65 5.84804e-12 0)
(165.65 -4.822e-12 0)
(165.65 -1.35019e-11 0)
(165.65 8.66974e-12 0)
(165.65 1.40059e-11 0)
(165.65 -2.08758e-11 0)
(165.65 -6.60026e-12 0)
(165.65 4.38891e-11 0)
(165.65 8.96917e-12 0)
(165.65 -4.25407e-11 0)
(165.65 9.41526e-13 0)
(165.65 3.56807e-11 0)
(165.65 -8.57228e-12 0)
(165.65 -3.15853e-11 0)
(165.65 -1.10916e-11 0)
(165.65 -1.06543e-11 0)
(165.65 5.17091e-13 0)
(165.65 1.28665e-12 0)
(165.65 1.76244e-12 0)
(165.65 2.07925e-12 0)
(165.65 2.28647e-12 0)
(165.65 2.34977e-12 0)
(165.65 2.20995e-12 0)
(165.65 2.11889e-12 0)
(165.65 2.0175e-12 0)
(165.65 1.84197e-12 0)
(165.65 1.73527e-12 0)
(165.65 1.79885e-12 0)
(165.65 1.81091e-12 0)
(165.65 1.73001e-12 0)
(165.65 1.87446e-12 0)
(165.65 2.04818e-12 0)
(165.65 1.9589e-12 0)
(165.65 1.78816e-12 0)
(165.65 1.70919e-12 0)
(165.65 1.33947e-12 0)
(165.65 1.04178e-12 0)
(165.65 1.05166e-12 0)
(165.65 6.48789e-13 0)
(165.65 4.33178e-13 0)
(165.65 7.59635e-13 0)
(165.65 4.1141e-13 0)
(165.65 2.48514e-13 0)
(165.65 1.16237e-12 0)
(165.65 1.41443e-12 0)
(165.65 7.72285e-13 0)
(165.65 1.664e-12 0)
(165.65 2.20434e-12 0)
(165.65 5.4375e-13 0)
(165.65 1.84663e-12 0)
(165.65 3.78392e-12 0)
(165.65 2.49915e-13 0)
(165.65 -5.54223e-13 0)
(165.65 2.93856e-12 0)
(165.65 2.63377e-12 0)
(165.65 3.1092e-13 0)
(165.65 -2.06717e-12 0)
(165.65 -3.09655e-12 0)
(165.65 3.21195e-12 0)
(165.65 6.70572e-12 0)
(165.65 -2.33645e-12 0)
(165.65 -2.72167e-12 0)
(165.65 7.71501e-12 0)
(165.65 1.82714e-12 0)
(165.65 -6.74168e-12 0)
(165.65 2.87404e-12 0)
(165.65 5.05485e-12 0)
(165.65 -3.66931e-12 0)
(165.65 2.81011e-12 0)
(165.65 5.71045e-12 0)
(165.65 -6.55469e-12 0)
(165.65 -4.64931e-12 0)
(165.65 9.82347e-12 0)
(165.65 -7.36812e-12 0)
(165.65 -4.44844e-11 0)
(165.65 -1.27131e-11 0)
(165.65 2.62884e-13 0)
(165.65 8.38314e-13 0)
(165.65 1.22547e-12 0)
(165.65 1.44377e-12 0)
(165.65 1.83728e-12 0)
(165.65 1.98375e-12 0)
(165.65 1.94725e-12 0)
(165.65 2.00802e-12 0)
(165.65 2.03608e-12 0)
(165.65 1.91621e-12 0)
(165.65 1.81857e-12 0)
(165.65 1.82151e-12 0)
(165.65 1.91217e-12 0)
(165.65 1.85487e-12 0)
(165.65 1.81164e-12 0)
(165.65 1.87336e-12 0)
(165.65 1.93046e-12 0)
(165.65 2.01264e-12 0)
(165.65 1.94315e-12 0)
(165.65 1.61375e-12 0)
(165.65 1.3161e-12 0)
(165.65 1.01506e-12 0)
(165.65 4.50574e-13 0)
(165.65 2.58446e-13 0)
(165.65 4.37965e-13 0)
(165.65 -6.85173e-14 0)
(165.65 -6.27067e-13 0)
(165.65 4.47296e-13 0)
(165.65 1.52669e-12 0)
(165.65 1.16719e-12 0)
(165.65 4.42489e-13 0)
(165.65 1.20006e-12 0)
(165.65 3.23008e-12 0)
(165.65 2.19317e-12 0)
(165.65 -4.85056e-14 0)
(165.65 8.73652e-13 0)
(165.65 3.06858e-12 0)
(165.65 1.31287e-12 0)
(165.65 -2.72378e-13 0)
(165.65 2.5729e-12 0)
(165.65 2.22035e-12 0)
(165.65 -4.59562e-13 0)
(165.65 3.35174e-12 0)
(165.65 4.06211e-12 0)
(165.65 -2.73993e-12 0)
(165.65 1.78655e-13 0)
(165.65 1.04375e-11 0)
(165.65 -4.32e-12 0)
(165.65 -1.63642e-11 0)
(165.65 1.22354e-11 0)
(165.65 1.31859e-11 0)
(165.65 -2.26107e-11 0)
(165.65 -7.28828e-12 0)
(165.65 1.78129e-11 0)
(165.65 -9.50261e-12 0)
(165.65 -2.21949e-11 0)
(165.65 -4.37477e-12 0)
(165.65 1.35953e-12 0)
(165.65 -9.09932e-12 0)
(165.65 -4.58889e-11 0)
(165.65 3.96309e-14 0)
(165.65 2.69193e-13 0)
(165.65 4.61556e-13 0)
(165.65 7.84785e-13 0)
(165.65 1.04487e-12 0)
(165.65 1.20476e-12 0)
(165.65 1.2967e-12 0)
(165.65 1.46487e-12 0)
(165.65 1.49891e-12 0)
(165.65 1.56198e-12 0)
(165.65 1.45655e-12 0)
(165.65 1.41137e-12 0)
(165.65 1.2802e-12 0)
(165.65 1.13249e-12 0)
(165.65 1.14574e-12 0)
(165.65 1.20695e-12 0)
(165.65 1.32579e-12 0)
(165.65 1.55883e-12 0)
(165.65 1.65376e-12 0)
(165.65 1.73631e-12 0)
(165.65 2.03155e-12 0)
(165.65 2.10259e-12 0)
(165.65 1.63069e-12 0)
(165.65 1.17132e-12 0)
(165.65 8.44909e-13 0)
(165.65 7.77456e-13 0)
(165.65 7.74065e-13 0)
(165.65 8.45004e-13 0)
(165.65 1.32445e-12 0)
(165.65 1.21482e-12 0)
(165.65 7.05726e-13 0)
(165.65 1.09095e-12 0)
(165.65 2.43482e-12 0)
(165.65 1.62049e-12 0)
(165.65 5.03506e-13 0)
(165.65 2.11658e-12 0)
(165.65 8.1564e-13 0)
(165.65 -1.19155e-12 0)
(165.65 3.60787e-12 0)
(165.65 2.20878e-12 0)
(165.65 -3.31126e-12 0)
(165.65 2.54756e-12 0)
(165.65 4.13908e-12 0)
(165.65 -4.70427e-12 0)
(165.65 -1.61183e-12 0)
(165.65 5.34461e-12 0)
(165.65 -4.01578e-12 0)
(165.65 -8.46485e-12 0)
(165.65 4.44102e-12 0)
(165.65 5.27388e-12 0)
(165.65 -1.1045e-11 0)
(165.65 -8.79895e-12 0)
(165.65 4.58774e-12 0)
(165.65 -6.2209e-12 0)
(165.65 -1.87621e-11 0)
(165.65 -5.89863e-12 0)
(165.65 -3.57973e-12 0)
(165.65 -1.96985e-11 0)
(165.65 -1.38014e-11 0)
(165.65 -1.00171e-11 0)
(165.65 -6.74544e-15 0)
(165.65 3.99176e-13 0)
(165.65 7.97747e-13 0)
(165.65 1.00227e-12 0)
(165.65 1.34212e-12 0)
(165.65 1.55545e-12 0)
(165.65 1.62293e-12 0)
(165.65 1.59368e-12 0)
(165.65 1.40543e-12 0)
(165.65 1.31025e-12 0)
(165.65 1.14258e-12 0)
(165.65 9.73632e-13 0)
(165.65 9.20583e-13 0)
(165.65 9.18805e-13 0)
(165.65 8.51264e-13 0)
(165.65 7.90964e-13 0)
(165.65 9.01505e-13 0)
(165.65 1.30053e-12 0)
(165.65 1.45865e-12 0)
(165.65 1.74959e-12 0)
(165.65 2.02891e-12 0)
(165.65 2.06803e-12 0)
(165.65 2.08349e-12 0)
(165.65 2.01003e-12 0)
(165.65 1.64269e-12 0)
(165.65 1.54885e-12 0)
(165.65 1.66073e-12 0)
(165.65 1.3265e-12 0)
(165.65 1.30034e-12 0)
(165.65 1.47625e-12 0)
(165.65 1.45181e-12 0)
(165.65 1.40865e-12 0)
(165.65 1.45586e-12 0)
(165.65 1.07909e-12 0)
(165.65 9.90798e-13 0)
(165.65 1.69157e-12 0)
(165.65 1.1911e-12 0)
(165.65 5.0751e-13 0)
(165.65 1.67657e-12 0)
(165.65 1.17746e-12 0)
(165.65 -2.29897e-13 0)
(165.65 5.0298e-13 0)
(165.65 1.24824e-12 0)
(165.65 -3.15144e-13 0)
(165.65 -2.06951e-12 0)
(165.65 4.70623e-13 0)
(165.65 4.46748e-13 0)
(165.65 -3.93183e-12 0)
(165.65 -1.936e-12 0)
(165.65 1.51242e-12 0)
(165.65 -3.46535e-12 0)
(165.65 -4.81765e-12 0)
(165.65 1.50062e-12 0)
(165.65 -2.91854e-12 0)
(165.65 -8.09462e-12 0)
(165.65 2.81237e-12 0)
(165.65 5.9934e-12 0)
(165.65 -1.73738e-11 0)
(165.65 -1.94332e-11 0)
(165.65 3.50212e-11 0)
(165.65 6.76061e-15 0)
(165.65 4.84329e-13 0)
(165.65 9.63129e-13 0)
(165.65 1.27086e-12 0)
(165.65 1.44131e-12 0)
(165.65 1.64246e-12 0)
(165.65 1.60937e-12 0)
(165.65 1.39924e-12 0)
(165.65 1.19123e-12 0)
(165.65 1.09743e-12 0)
(165.65 1.04547e-12 0)
(165.65 7.74304e-13 0)
(165.65 8.09674e-13 0)
(165.65 1.22604e-12 0)
(165.65 1.23269e-12 0)
(165.65 1.21424e-12 0)
(165.65 1.09488e-12 0)
(165.65 1.09023e-12 0)
(165.65 1.28331e-12 0)
(165.65 1.42735e-12 0)
(165.65 1.30984e-12 0)
(165.65 1.30567e-12 0)
(165.65 1.75409e-12 0)
(165.65 2.05374e-12 0)
(165.65 2.14945e-12 0)
(165.65 2.15183e-12 0)
(165.65 2.22879e-12 0)
(165.65 1.86482e-12 0)
(165.65 1.06534e-12 0)
(165.65 1.49239e-12 0)
(165.65 1.98936e-12 0)
(165.65 1.24676e-12 0)
(165.65 3.26162e-13 0)
(165.65 4.62949e-13 0)
(165.65 1.15957e-12 0)
(165.65 7.93062e-13 0)
(165.65 1.47437e-12 0)
(165.65 2.41271e-12 0)
(165.65 -1.39124e-12 0)
(165.65 2.92326e-13 0)
(165.65 4.57819e-12 0)
(165.65 -1.45388e-12 0)
(165.65 -2.89681e-12 0)
(165.65 4.88882e-12 0)
(165.65 3.68466e-13 0)
(165.65 -5.93899e-12 0)
(165.65 4.58454e-12 0)
(165.65 5.65148e-12 0)
(165.65 -7.90912e-12 0)
(165.65 1.00593e-12 0)
(165.65 1.12195e-11 0)
(165.65 -6.78299e-12 0)
(165.65 -5.25864e-12 0)
(165.65 1.14531e-11 0)
(165.65 -2.61756e-12 0)
(165.65 -4.28912e-12 0)
(165.65 1.05033e-11 0)
(165.65 -3.90566e-12 0)
(165.65 -5.79667e-12 0)
(165.65 1.64708e-11 0)
(165.65 2.77609e-13 0)
(165.65 2.83632e-13 0)
(165.65 3.34957e-13 0)
(165.65 3.00784e-13 0)
(165.65 6.33727e-14 0)
(165.65 1.13486e-13 0)
(165.65 1.63263e-13 0)
(165.65 1.72671e-13 0)
(165.65 1.837e-13 0)
(165.65 2.17896e-13 0)
(165.65 4.47987e-13 0)
(165.65 6.13013e-13 0)
(165.65 7.60915e-13 0)
(165.65 8.28778e-13 0)
(165.65 1.18914e-12 0)
(165.65 1.3873e-12 0)
(165.65 1.33118e-12 0)
(165.65 1.12668e-12 0)
(165.65 1.1661e-12 0)
(165.65 9.41283e-13 0)
(165.65 1.02294e-12 0)
(165.65 1.64632e-12 0)
(165.65 1.80967e-12 0)
(165.65 1.95948e-12 0)
(165.65 2.81672e-12 0)
(165.65 2.70037e-12 0)
(165.65 2.32283e-12 0)
(165.65 2.15696e-12 0)
(165.65 2.03383e-12 0)
(165.65 1.88224e-12 0)
(165.65 1.50069e-12 0)
(165.65 1.25012e-12 0)
(165.65 1.24555e-12 0)
(165.65 1.4569e-12 0)
(165.65 1.20233e-12 0)
(165.65 8.99701e-13 0)
(165.65 1.13495e-12 0)
(165.65 1.16801e-12 0)
(165.65 7.90297e-13 0)
(165.65 1.26989e-12 0)
(165.65 3.55031e-13 0)
(165.65 -5.27323e-13 0)
(165.65 1.21588e-12 0)
(165.65 1.60709e-12 0)
(165.65 1.96357e-13 0)
(165.65 1.28601e-12 0)
(165.65 2.81617e-12 0)
(165.65 1.89912e-12 0)
(165.65 1.69613e-12 0)
(165.65 2.64373e-12 0)
(165.65 3.46566e-12 0)
(165.65 3.05317e-12 0)
(165.65 2.27654e-12 0)
(165.65 4.33396e-12 0)
(165.65 4.27191e-12 0)
(165.65 6.25113e-13 0)
(165.65 5.14749e-12 0)
(165.65 7.90635e-12 0)
(165.65 -6.38096e-13 0)
(165.65 6.35683e-12 0)
(165.65 1.22824e-14 0)
(165.65 -4.15646e-13 0)
(165.65 -6.74164e-13 0)
(165.65 -1.15968e-12 0)
(165.65 -1.39057e-12 0)
(165.65 -1.5344e-12 0)
(165.65 -1.37826e-12 0)
(165.65 -8.89663e-13 0)
(165.65 -5.96345e-13 0)
(165.65 -2.06292e-13 0)
(165.65 2.12779e-13 0)
(165.65 8.19507e-13 0)
(165.65 1.09019e-12 0)
(165.65 8.99319e-13 0)
(165.65 1.03013e-12 0)
(165.65 1.24162e-12 0)
(165.65 1.3393e-12 0)
(165.65 1.26265e-12 0)
(165.65 1.17e-12 0)
(165.65 9.66172e-13 0)
(165.65 1.02251e-12 0)
(165.65 1.54002e-12 0)
(165.65 1.56845e-12 0)
(165.65 1.67144e-12 0)
(165.65 2.27128e-12 0)
(165.65 2.16938e-12 0)
(165.65 1.65059e-12 0)
(165.65 1.92112e-12 0)
(165.65 2.36869e-12 0)
(165.65 2.18839e-12 0)
(165.65 1.86087e-12 0)
(165.65 1.68148e-12 0)
(165.65 2.0302e-12 0)
(165.65 1.95486e-12 0)
(165.65 1.17843e-12 0)
(165.65 1.32738e-12 0)
(165.65 1.51608e-12 0)
(165.65 7.40222e-13 0)
(165.65 9.51795e-13 0)
(165.65 1.62374e-12 0)
(165.65 1.10956e-12 0)
(165.65 1.07566e-12 0)
(165.65 1.99522e-12 0)
(165.65 1.12565e-12 0)
(165.65 1.72651e-12 0)
(165.65 3.32631e-12 0)
(165.65 -4.39757e-13 0)
(165.65 1.25573e-12 0)
(165.65 5.85211e-12 0)
(165.65 -5.12031e-12 0)
(165.65 -1.41356e-13 0)
(165.65 1.31063e-11 0)
(165.65 -9.20353e-12 0)
(165.65 -4.13062e-12 0)
(165.65 2.05939e-11 0)
(165.65 -7.86678e-12 0)
(165.65 -7.74321e-12 0)
(165.65 3.1226e-11 0)
(165.65 8.36471e-12 0)
(165.65 -7.9989e-12 0)
(165.65 -2.3076e-13 0)
(165.65 -3.64334e-13 0)
(165.65 -4.62149e-13 0)
(165.65 -4.84357e-13 0)
(165.65 -4.51558e-13 0)
(165.65 -3.74199e-13 0)
(165.65 -1.98464e-13 0)
(165.65 -7.47179e-14 0)
(165.65 1.33536e-13 0)
(165.65 5.57424e-13 0)
(165.65 6.4125e-13 0)
(165.65 9.54999e-13 0)
(165.65 1.11316e-12 0)
(165.65 1.14078e-12 0)
(165.65 1.02171e-12 0)
(165.65 8.30339e-13 0)
(165.65 8.19319e-13 0)
(165.65 8.97328e-13 0)
(165.65 8.83573e-13 0)
(165.65 1.17548e-12 0)
(165.65 1.39266e-12 0)
(165.65 1.38907e-12 0)
(165.65 1.68633e-12 0)
(165.65 1.66983e-12 0)
(165.65 1.16906e-12 0)
(165.65 1.50212e-12 0)
(165.65 1.60013e-12 0)
(165.65 1.22276e-12 0)
(165.65 1.69771e-12 0)
(165.65 1.99479e-12 0)
(165.65 1.77149e-12 0)
(165.65 2.11376e-12 0)
(165.65 2.76203e-12 0)
(165.65 2.07454e-12 0)
(165.65 7.45488e-13 0)
(165.65 1.79111e-12 0)
(165.65 2.88965e-12 0)
(165.65 1.38753e-12 0)
(165.65 4.4531e-13 0)
(165.65 2.09098e-12 0)
(165.65 2.73121e-12 0)
(165.65 1.17999e-12 0)
(165.65 9.48357e-13 0)
(165.65 1.57361e-12 0)
(165.65 8.40444e-13 0)
(165.65 1.71331e-12 0)
(165.65 2.96996e-12 0)
(165.65 1.70423e-12 0)
(165.65 8.21004e-13 0)
(165.65 7.66053e-13 0)
(165.65 -1.37853e-12 0)
(165.65 -3.1275e-12 0)
(165.65 -1.46839e-12 0)
(165.65 -2.8375e-12 0)
(165.65 -6.23756e-12 0)
(165.65 -8.84671e-13 0)
(165.65 6.23216e-13 0)
(165.65 -6.50374e-12 0)
(165.65 -3.33543e-12 0)
(165.65 -3.85098e-12 0)
(165.65 7.44717e-14 0)
(165.65 3.31226e-13 0)
(165.65 3.84985e-13 0)
(165.65 6.93067e-13 0)
(165.65 9.10576e-13 0)
(165.65 1.17023e-12 0)
(165.65 1.31441e-12 0)
(165.65 1.59129e-12 0)
(165.65 1.84065e-12 0)
(165.65 2.00653e-12 0)
(165.65 1.84402e-12 0)
(165.65 1.50572e-12 0)
(165.65 1.22885e-12 0)
(165.65 1.08865e-12 0)
(165.65 9.41181e-13 0)
(165.65 7.79501e-13 0)
(165.65 5.76705e-13 0)
(165.65 5.24631e-13 0)
(165.65 4.96853e-13 0)
(165.65 1.03359e-12 0)
(165.65 1.53098e-12 0)
(165.65 1.57195e-12 0)
(165.65 2.026e-12 0)
(165.65 2.59194e-12 0)
(165.65 1.95541e-12 0)
(165.65 2.21153e-12 0)
(165.65 3.15693e-12 0)
(165.65 2.60629e-12 0)
(165.65 2.61997e-12 0)
(165.65 3.7413e-12 0)
(165.65 3.21499e-12 0)
(165.65 2.92246e-12 0)
(165.65 5.25206e-12 0)
(165.65 5.93711e-12 0)
(165.65 2.38794e-12 0)
(165.65 1.77288e-12 0)
(165.65 4.83756e-12 0)
(165.65 5.55809e-12 0)
(165.65 3.06975e-12 0)
(165.65 -8.8031e-14 0)
(165.65 2.16264e-12 0)
(165.65 5.46577e-12 0)
(165.65 1.3981e-12 0)
(165.65 -1.36572e-12 0)
(165.65 -1.46109e-12 0)
(165.65 -2.22546e-12 0)
(165.65 2.48935e-12 0)
(165.65 3.73252e-12 0)
(165.65 9.64843e-12 0)
(165.65 1.32877e-11 0)
(165.65 -1.69741e-11 0)
(165.65 -1.25587e-11 0)
(165.65 2.27863e-11 0)
(165.65 -1.34585e-11 0)
(165.65 -3.972e-11 0)
(165.65 5.53136e-12 0)
(165.65 -2.3305e-13 0)
(165.65 -3.57755e-11 0)
(165.65 -1.44141e-11 0)
(165.65 8.43318e-12 0)
(165.65 2.23146e-13 0)
(165.65 7.07801e-13 0)
(165.65 8.38186e-13 0)
(165.65 1.20706e-12 0)
(165.65 1.47e-12 0)
(165.65 1.57837e-12 0)
(165.65 1.70596e-12 0)
(165.65 2.00953e-12 0)
(165.65 2.37938e-12 0)
(165.65 2.64837e-12 0)
(165.65 2.65614e-12 0)
(165.65 1.84381e-12 0)
(165.65 1.33237e-12 0)
(165.65 8.56389e-13 0)
(165.65 4.81592e-13 0)
(165.65 4.49514e-13 0)
(165.65 1.69803e-13 0)
(165.65 -7.36558e-15 0)
(165.65 8.08225e-14 0)
(165.65 5.8728e-13 0)
(165.65 8.07294e-13 0)
(165.65 1.54309e-12 0)
(165.65 2.33202e-12 0)
(165.65 2.79733e-12 0)
(165.65 3.40464e-12 0)
(165.65 3.92062e-12 0)
(165.65 4.15907e-12 0)
(165.65 3.91638e-12 0)
(165.65 4.21519e-12 0)
(165.65 5.3718e-12 0)
(165.65 4.19871e-12 0)
(165.65 2.53687e-12 0)
(165.65 4.43627e-12 0)
(165.65 4.83596e-12 0)
(165.65 1.87303e-12 0)
(165.65 1.31871e-12 0)
(165.65 3.61135e-12 0)
(165.65 2.77232e-12 0)
(165.65 6.0242e-14 0)
(165.65 3.6144e-12 0)
(165.65 9.08711e-12 0)
(165.65 8.19091e-13 0)
(165.65 -1.19562e-11 0)
(165.65 1.2592e-11 0)
(165.65 4.2678e-11 0)
(165.65 -2.09336e-11 0)
(165.65 -1.08775e-10 0)
(165.65 -4.36562e-11 0)
(165.65 1.05293e-10 0)
(165.65 8.76721e-11 0)
(165.65 -1.02639e-10 0)
(165.65 -1.29745e-10 0)
(165.65 1.00075e-10 0)
(165.65 9.48203e-11 0)
(165.65 -1.0318e-10 0)
(165.65 -4.73928e-11 0)
(165.65 7.09459e-11 0)
(165.65 -2.98247e-12 0)
(165.65 -6.03945e-11 0)
(165.65 -4.11437e-12 0)
(165.65 1.32733e-13 0)
(165.65 6.38584e-13 0)
(165.65 1.00526e-12 0)
(165.65 1.36624e-12 0)
(165.65 1.68811e-12 0)
(165.65 1.98869e-12 0)
(165.65 2.11398e-12 0)
(165.65 2.03631e-12 0)
(165.65 2.0228e-12 0)
(165.65 2.00143e-12 0)
(165.65 1.62372e-12 0)
(165.65 8.11282e-13 0)
(165.65 7.84134e-13 0)
(165.65 4.16682e-13 0)
(165.65 -2.10918e-13 0)
(165.65 -5.09962e-13 0)
(165.65 -7.8809e-14 0)
(165.65 -2.7599e-13 0)
(165.65 -9.27142e-13 0)
(165.65 -7.14173e-13 0)
(165.65 -2.96584e-13 0)
(165.65 2.03026e-13 0)
(165.65 6.66209e-13 0)
(165.65 8.21475e-13 0)
(165.65 1.15452e-12 0)
(165.65 1.14391e-12 0)
(165.65 8.78217e-13 0)
(165.65 1.15533e-12 0)
(165.65 7.8021e-13 0)
(165.65 -2.45184e-13 0)
(165.65 -2.08738e-13 0)
(165.65 1.42484e-14 0)
(165.65 -2.22514e-12 0)
(165.65 -3.28598e-12 0)
(165.65 -2.15991e-13 0)
(165.65 1.10145e-12 0)
(165.65 -1.8081e-12 0)
(165.65 -2.60286e-12 0)
(165.65 2.86774e-13 0)
(165.65 4.10594e-12 0)
(165.65 2.93238e-12 0)
(165.65 -1.0345e-12 0)
(165.65 4.6587e-13 0)
(165.65 3.39178e-12 0)
(165.65 1.72181e-13 0)
(165.65 -1.20526e-11 0)
(165.65 -1.59325e-11 0)
(165.65 6.36789e-14 0)
(165.65 1.82245e-11 0)
(165.65 1.39928e-11 0)
(165.65 -5.18443e-12 0)
(165.65 -2.49769e-11 0)
(165.65 1.24801e-11 0)
(165.65 2.72827e-11 0)
(165.65 -1.45827e-11 0)
(165.65 -4.24087e-12 0)
(165.65 2.404e-11 0)
(165.65 -8.57913e-12 0)
(165.65 -3.39117e-11 0)
(165.65 -3.11339e-11 0)
(165.65 2.38089e-13 0)
(165.65 4.97453e-13 0)
(165.65 8.35715e-13 0)
(165.65 1.1031e-12 0)
(165.65 1.44057e-12 0)
(165.65 1.73183e-12 0)
(165.65 1.91902e-12 0)
(165.65 1.75785e-12 0)
(165.65 1.37695e-12 0)
(165.65 9.87586e-13 0)
(165.65 5.58588e-13 0)
(165.65 2.69056e-13 0)
(165.65 2.5115e-13 0)
(165.65 -1.25759e-13 0)
(165.65 -3.80219e-13 0)
(165.65 -4.57017e-13 0)
(165.65 -5.25572e-13 0)
(165.65 -6.56502e-13 0)
(165.65 -4.52802e-13 0)
(165.65 -3.10622e-13 0)
(165.65 -8.99569e-13 0)
(165.65 -1.00376e-12 0)
(165.65 -4.24983e-13 0)
(165.65 -8.7038e-13 0)
(165.65 -1.74411e-12 0)
(165.65 -2.14765e-12 0)
(165.65 -1.91583e-12 0)
(165.65 -1.29445e-12 0)
(165.65 -2.32154e-12 0)
(165.65 -3.5923e-12 0)
(165.65 -1.70219e-12 0)
(165.65 -7.90131e-13 0)
(165.65 -3.4614e-12 0)
(165.65 -3.15072e-12 0)
(165.65 1.177e-12 0)
(165.65 1.05325e-12 0)
(165.65 -2.37904e-12 0)
(165.65 -1.71456e-14 0)
(165.65 4.01737e-12 0)
(165.65 -9.94114e-13 0)
(165.65 -6.151e-12 0)
(165.65 3.58358e-12 0)
(165.65 1.40058e-11 0)
(165.65 -1.16395e-11 0)
(165.65 -3.9961e-11 0)
(165.65 2.06967e-11 0)
(165.65 1.07854e-10 0)
(165.65 4.73369e-11 0)
(165.65 -1.03626e-10 0)
(165.65 -9.29213e-11 0)
(165.65 9.55523e-11 0)
(165.65 1.28147e-10 0)
(165.65 -9.91569e-11 0)
(165.65 -9.98064e-11 0)
(165.65 9.56767e-11 0)
(165.65 3.76688e-11 0)
(165.65 -8.70941e-11 0)
(165.65 -2.04845e-11 0)
(165.65 2.6454e-11 0)
(165.65 -4.3341e-11 0)
(165.65 2.44889e-13 0)
(165.65 3.19902e-13 0)
(165.65 5.43851e-13 0)
(165.65 6.91567e-13 0)
(165.65 8.14023e-13 0)
(165.65 7.87381e-13 0)
(165.65 6.92312e-13 0)
(165.65 6.71918e-13 0)
(165.65 4.79833e-13 0)
(165.65 4.43059e-14 0)
(165.65 -1.24916e-13 0)
(165.65 2.5596e-14 0)
(165.65 -6.90704e-14 0)
(165.65 -2.73802e-13 0)
(165.65 -3.79765e-13 0)
(165.65 -3.86051e-13 0)
(165.65 -4.68918e-13 0)
(165.65 -1.19018e-13 0)
(165.65 5.54757e-13 0)
(165.65 8.29689e-13 0)
(165.65 3.0661e-13 0)
(165.65 -3.26949e-13 0)
(165.65 -3.50935e-13 0)
(165.65 -4.9984e-13 0)
(165.65 -1.03979e-12 0)
(165.65 -1.42806e-12 0)
(165.65 -1.37276e-12 0)
(165.65 -6.65151e-13 0)
(165.65 -4.68555e-13 0)
(165.65 -9.26301e-13 0)
(165.65 3.17897e-13 0)
(165.65 1.58222e-12 0)
(165.65 -1.72649e-14 0)
(165.65 2.55463e-13 0)
(165.65 3.09736e-12 0)
(165.65 2.88934e-12 0)
(165.65 1.05401e-12 0)
(165.65 1.9517e-12 0)
(165.65 3.04387e-12 0)
(165.65 6.08004e-13 0)
(165.65 -1.05714e-12 0)
(165.65 1.76913e-12 0)
(165.65 1.5783e-12 0)
(165.65 -1.65311e-12 0)
(165.65 4.78822e-12 0)
(165.65 1.75507e-11 0)
(165.65 1.31309e-11 0)
(165.65 -3.55721e-12 0)
(165.65 -2.62296e-11 0)
(165.65 -2.66505e-11 0)
(165.65 1.37852e-11 0)
(165.65 3.0342e-11 0)
(165.65 -3.4888e-11 0)
(165.65 -3.57033e-11 0)
(165.65 3.33373e-11 0)
(165.65 -4.70338e-12 0)
(165.65 -7.02401e-11 0)
(165.65 -1.51421e-11 0)
(165.65 1.49848e-11 0)
(165.65 -6.46318e-11 0)
(165.65 -1.85626e-13 0)
(165.65 -2.44419e-13 0)
(165.65 -2.04918e-13 0)
(165.65 -3.2696e-14 0)
(165.65 -2.58326e-15 0)
(165.65 -1.36584e-13 0)
(165.65 -4.13398e-13 0)
(165.65 -3.85154e-13 0)
(165.65 -3.02812e-13 0)
(165.65 -2.49272e-13 0)
(165.65 -1.01456e-13 0)
(165.65 -1.35421e-14 0)
(165.65 1.21838e-13 0)
(165.65 3.30166e-13 0)
(165.65 5.62198e-13 0)
(165.65 7.26178e-13 0)
(165.65 8.32014e-13 0)
(165.65 1.02764e-12 0)
(165.65 1.41629e-12 0)
(165.65 1.15085e-12 0)
(165.65 1.16615e-12 0)
(165.65 9.17351e-13 0)
(165.65 9.9712e-14 0)
(165.65 8.18814e-14 0)
(165.65 6.22915e-13 0)
(165.65 1.49642e-13 0)
(165.65 -5.55444e-13 0)
(165.65 -4.09745e-13 0)
(165.65 -1.70529e-13 0)
(165.65 -1.20814e-13 0)
(165.65 7.41899e-13 0)
(165.65 7.75268e-13 0)
(165.65 -6.73228e-13 0)
(165.65 6.02268e-13 0)
(165.65 3.29563e-12 0)
(165.65 6.52147e-13 0)
(165.65 -1.7992e-12 0)
(165.65 2.63233e-12 0)
(165.65 3.61356e-12 0)
(165.65 -1.13192e-12 0)
(165.65 3.91017e-13 0)
(165.65 3.52067e-12 0)
(165.65 1.29624e-13 0)
(165.65 -1.42446e-12 0)
(165.65 2.14316e-12 0)
(165.65 1.83573e-12 0)
(165.65 -2.3826e-12 0)
(165.65 -1.48597e-12 0)
(165.65 3.90394e-12 0)
(165.65 4.28733e-12 0)
(165.65 -2.83226e-12 0)
(165.65 -7.96851e-12 0)
(165.65 -1.23707e-11 0)
(165.65 -8.53455e-12 0)
(165.65 -1.23776e-11 0)
(165.65 -2.60237e-11 0)
(165.65 -2.92964e-11 0)
(165.65 -3.19701e-11 0)
(165.65 -4.2007e-11 0)
(165.65 -4.72392e-11 0)
(165.65 -3.31516e-13 0)
(165.65 -7.36618e-13 0)
(165.65 -9.15602e-13 0)
(165.65 -7.00221e-13 0)
(165.65 -5.57814e-13 0)