/*--------------------------------*- C++ -*----------------------------------*\
  =========                 |
  \\      /  F ield         | OpenFOAM: The Open Source CFD Toolbox
   \\    /   O peration     | Website:  https://openfoam.org
    \\  /    A nd           | Version:  9
     \\/     M anipulation  |
\*---------------------------------------------------------------------------*/
FoamFile
{
    format      ascii;
    class       volScalarField;
    location    "0.004";
    object      alphat;
}
// * * * * * * * * * * * * * * * * * * * * * * * * * * * * * * * * * * * * * //

dimensions      [1 -1 -1 0 0 0 0];

internalField   nonuniform List<scalar> 
36400
(
7.99874e-06
7.96343e-06
7.92969e-06
7.89748e-06
7.86679e-06
7.83765e-06
7.81016e-06
7.7844e-06
7.76049e-06
7.73849e-06
7.7184e-06
7.70014e-06
7.68353e-06
7.66834e-06
7.65431e-06
7.64114e-06
7.62862e-06
7.61656e-06
7.60489e-06
7.59359e-06
7.58269e-06
7.57225e-06
7.5623e-06
7.55281e-06
7.54369e-06
7.53475e-06
7.5258e-06
7.51666e-06
7.50727e-06
7.49768e-06
7.48811e-06
7.47883e-06
7.47015e-06
7.46234e-06
7.45561e-06
7.45008e-06
7.44581e-06
7.44277e-06
7.44085e-06
7.43986e-06
7.43947e-06
7.43928e-06
7.43878e-06
7.43749e-06
7.43499e-06
7.43111e-06
7.4259e-06
7.41968e-06
7.41288e-06
7.40598e-06
7.39936e-06
7.39329e-06
7.38796e-06
7.38346e-06
7.37989e-06
7.3774e-06
7.37631e-06
7.37732e-06
7.38225e-06
7.39641e-06
7.99874e-06
7.96342e-06
7.92967e-06
7.89743e-06
7.86668e-06
7.83744e-06
7.80979e-06
7.7838e-06
7.75957e-06
7.73717e-06
7.71663e-06
7.6979e-06
7.68085e-06
7.66531e-06
7.65107e-06
7.63791e-06
7.62563e-06
7.61408e-06
7.60317e-06
7.59287e-06
7.58318e-06
7.57412e-06
7.56568e-06
7.55781e-06
7.55039e-06
7.54324e-06
7.53615e-06
7.52895e-06
7.52155e-06
7.51395e-06
7.50631e-06
7.49884e-06
7.49181e-06
7.48545e-06
7.47997e-06
7.4755e-06
7.4721e-06
7.46977e-06
7.46842e-06
7.46789e-06
7.46791e-06
7.46811e-06
7.46807e-06
7.46739e-06
7.46572e-06
7.46289e-06
7.45893e-06
7.45404e-06
7.44858e-06
7.44291e-06
7.43735e-06
7.43215e-06
7.42749e-06
7.42352e-06
7.42039e-06
7.41834e-06
7.41779e-06
7.41968e-06
7.42616e-06
7.44293e-06
7.99873e-06
7.96341e-06
7.92964e-06
7.89735e-06
7.8665e-06
7.8371e-06
7.80919e-06
7.78281e-06
7.75805e-06
7.73497e-06
7.71363e-06
7.69403e-06
7.67612e-06
7.65982e-06
7.64501e-06
7.63159e-06
7.61942e-06
7.60841e-06
7.59848e-06
7.5896e-06
7.58173e-06
7.57483e-06
7.56882e-06
7.5636e-06
7.55899e-06
7.55479e-06
7.55077e-06
7.54672e-06
7.54252e-06
7.5381e-06
7.53353e-06
7.52894e-06
7.52452e-06
7.52044e-06
7.51689e-06
7.51398e-06
7.51181e-06
7.51039e-06
7.50968e-06
7.50957e-06
7.50986e-06
7.51032e-06
7.51066e-06
7.51058e-06
7.50987e-06
7.50838e-06
7.50613e-06
7.50321e-06
7.49983e-06
7.4962e-06
7.49256e-06
7.48908e-06
7.48593e-06
7.48328e-06
7.48137e-06
7.48055e-06
7.48154e-06
7.48571e-06
7.49605e-06
7.51939e-06
7.99873e-06
7.9634e-06
7.9296e-06
7.89726e-06
7.86633e-06
7.83676e-06
7.80856e-06
7.78176e-06
7.75642e-06
7.73258e-06
7.7103e-06
7.68962e-06
7.67058e-06
7.65318e-06
7.63742e-06
7.62329e-06
7.61077e-06
7.59984e-06
7.5905e-06
7.58271e-06
7.57642e-06
7.57154e-06
7.56794e-06
7.56541e-06
7.56373e-06
7.56262e-06
7.5618e-06
7.56102e-06
7.56008e-06
7.55887e-06
7.55738e-06
7.55564e-06
7.55376e-06
7.55188e-06
7.55012e-06
7.54861e-06
7.54744e-06
7.54664e-06
7.54623e-06
7.54616e-06
7.54633e-06
7.54663e-06
7.5469e-06
7.54699e-06
7.5468e-06
7.54623e-06
7.54529e-06
7.54401e-06
7.54248e-06
7.54081e-06
7.5391e-06
7.53749e-06
7.53609e-06
7.5351e-06
7.53481e-06
7.53578e-06
7.53906e-06
7.5468e-06
7.56346e-06
7.59912e-06
7.99873e-06
7.96339e-06
7.92958e-06
7.8972e-06
7.86619e-06
7.83648e-06
7.80806e-06
7.78092e-06
7.75507e-06
7.73056e-06
7.70743e-06
7.68575e-06
7.66559e-06
7.64702e-06
7.63012e-06
7.61498e-06
7.60169e-06
7.59031e-06
7.5809e-06
7.57348e-06
7.568e-06
7.56436e-06
7.56237e-06
7.56178e-06
7.56227e-06
7.56349e-06
7.56511e-06
7.5668e-06
7.56831e-06
7.56947e-06
7.57019e-06
7.57049e-06
7.5704e-06
7.57002e-06
7.56946e-06
7.56883e-06
7.56822e-06
7.5677e-06
7.5673e-06
7.56704e-06
7.56691e-06
7.56685e-06
7.56683e-06
7.56678e-06
7.56667e-06
7.56646e-06
7.56614e-06
7.56573e-06
7.56525e-06
7.56475e-06
7.56427e-06
7.56389e-06
7.56374e-06
7.56403e-06
7.56517e-06
7.568e-06
7.57415e-06
7.58696e-06
7.61355e-06
7.67096e-06
7.99873e-06
7.96338e-06
7.92956e-06
7.89716e-06
7.8661e-06
7.8363e-06
7.80773e-06
7.78035e-06
7.75416e-06
7.72917e-06
7.70543e-06
7.68298e-06
7.66193e-06
7.64238e-06
7.62447e-06
7.60834e-06
7.59414e-06
7.58203e-06
7.57213e-06
7.56448e-06
7.55908e-06
7.55584e-06
7.55454e-06
7.55489e-06
7.55653e-06
7.55905e-06
7.56205e-06
7.56516e-06
7.56807e-06
7.57057e-06
7.57254e-06
7.57394e-06
7.57482e-06
7.57524e-06
7.5753e-06
7.57511e-06
7.57478e-06
7.57437e-06
7.57395e-06
7.57356e-06
7.57322e-06
7.57293e-06
7.57269e-06
7.5725e-06
7.57233e-06
7.57219e-06
7.57206e-06
7.57195e-06
7.57188e-06
7.57184e-06
7.57189e-06
7.5721e-06
7.57262e-06
7.57376e-06
7.57617e-06
7.5811e-06
7.59116e-06
7.61165e-06
7.65432e-06
7.74936e-06
7.99873e-06
7.96338e-06
7.92955e-06
7.89714e-06
7.86605e-06
7.8362e-06
7.80754e-06
7.78003e-06
7.75364e-06
7.72836e-06
7.70424e-06
7.68131e-06
7.65968e-06
7.63946e-06
7.62082e-06
7.60393e-06
7.58899e-06
7.57619e-06
7.56569e-06
7.55759e-06
7.5519e-06
7.54855e-06
7.54733e-06
7.54793e-06
7.54996e-06
7.55299e-06
7.55656e-06
7.56028e-06
7.56381e-06
7.5669e-06
7.56943e-06
7.57133e-06
7.57263e-06
7.5734e-06
7.57375e-06
7.57378e-06
7.5736e-06
7.57328e-06
7.5729e-06
7.5725e-06
7.57212e-06
7.57178e-06
7.57149e-06
7.57125e-06
7.57106e-06
7.57093e-06
7.57085e-06
7.57083e-06
7.57086e-06
7.57097e-06
7.57122e-06
7.57172e-06
7.57271e-06
7.57467e-06
7.57861e-06
7.58652e-06
7.60255e-06
7.63532e-06
7.70479e-06
7.86521e-06
7.99873e-06
7.96338e-06
7.92955e-06
7.89713e-06
7.86602e-06
7.83616e-06
7.80746e-06
7.77987e-06
7.75338e-06
7.72796e-06
7.70363e-06
7.68044e-06
7.65848e-06
7.63788e-06
7.6188e-06
7.60143e-06
7.586e-06
7.5727e-06
7.56174e-06
7.55323e-06
7.5472e-06
7.5436e-06
7.54221e-06
7.54275e-06
7.5448e-06
7.54792e-06
7.55164e-06
7.55554e-06
7.55927e-06
7.56257e-06
7.56529e-06
7.56737e-06
7.56883e-06
7.56976e-06
7.57023e-06
7.57038e-06
7.57029e-06
7.57005e-06
7.56974e-06
7.5694e-06
7.56907e-06
7.56876e-06
7.56851e-06
7.5683e-06
7.56814e-06
7.56803e-06
7.56797e-06
7.56797e-06
7.56805e-06
7.56824e-06
7.56864e-06
7.56942e-06
7.57096e-06
7.57405e-06
7.58023e-06
7.59271e-06
7.61808e-06
7.67061e-06
7.78481e-06
8.0549e-06
7.99873e-06
7.96338e-06
7.92955e-06
7.89712e-06
7.86601e-06
7.83613e-06
7.80742e-06
7.77981e-06
7.75326e-06
7.72777e-06
7.70335e-06
7.68004e-06
7.65792e-06
7.63713e-06
7.61782e-06
7.6002e-06
7.58449e-06
7.5709e-06
7.55965e-06
7.55086e-06
7.54459e-06
7.54077e-06
7.53921e-06
7.53961e-06
7.54157e-06
7.54464e-06
7.54835e-06
7.55226e-06
7.55602e-06
7.55937e-06
7.56214e-06
7.56427e-06
7.5658e-06
7.56677e-06
7.56731e-06
7.56751e-06
7.56748e-06
7.5673e-06
7.56705e-06
7.56677e-06
7.5665e-06
7.56625e-06
7.56604e-06
7.56587e-06
7.56575e-06
7.56567e-06
7.56564e-06
7.56567e-06
7.5658e-06
7.56608e-06
7.56667e-06
7.56785e-06
7.57021e-06
7.57495e-06
7.58449e-06
7.60379e-06
7.64333e-06
7.72666e-06
7.91305e-06
8.34828e-06
7.99873e-06
7.96338e-06
7.92955e-06
7.89712e-06
7.86601e-06
7.83613e-06
7.8074e-06
7.77978e-06
7.75322e-06
7.7277e-06
7.70324e-06
7.67987e-06
7.65769e-06
7.63681e-06
7.61739e-06
7.59965e-06
7.5838e-06
7.57008e-06
7.55868e-06
7.54974e-06
7.54332e-06
7.53936e-06
7.53768e-06
7.53798e-06
7.53986e-06
7.54287e-06
7.54653e-06
7.55042e-06
7.55416e-06
7.5575e-06
7.56027e-06
7.56242e-06
7.56396e-06
7.56496e-06
7.56552e-06
7.56575e-06
7.56575e-06
7.56561e-06
7.5654e-06
7.56516e-06
7.56492e-06
7.56472e-06
7.56454e-06
7.5644e-06
7.56431e-06
7.56425e-06
7.56425e-06
7.56432e-06
7.56452e-06
7.56495e-06
7.56582e-06
7.56758e-06
7.57111e-06
7.5782e-06
7.59248e-06
7.62145e-06
7.68133e-06
7.81008e-06
8.1032e-06
8.73991e-06
7.99873e-06
7.96338e-06
7.92955e-06
7.89712e-06
7.86601e-06
7.83612e-06
7.8074e-06
7.77977e-06
7.7532e-06
7.72767e-06
7.7032e-06
7.67981e-06
7.6576e-06
7.63668e-06
7.61723e-06
7.59943e-06
7.58353e-06
7.56974e-06
7.55827e-06
7.54925e-06
7.54276e-06
7.53874e-06
7.53699e-06
7.53724e-06
7.53907e-06
7.54203e-06
7.54566e-06
7.54952e-06
7.55325e-06
7.55657e-06
7.55934e-06
7.56149e-06
7.56303e-06
7.56403e-06
7.5646e-06
7.56484e-06
7.56486e-06
7.56474e-06
7.56455e-06
7.56433e-06
7.56412e-06
7.56393e-06
7.56377e-06
7.56365e-06
7.56357e-06
7.56354e-06
7.56357e-06
7.56369e-06
7.56399e-06
7.56462e-06
7.56589e-06
7.56843e-06
7.57351e-06
7.58365e-06
7.60404e-06
7.64575e-06
7.73324e-06
7.92565e-06
8.3615e-06
9.18515e-06
7.99873e-06
7.96338e-06
7.92955e-06
7.89712e-06
7.86601e-06
7.83612e-06
7.8074e-06
7.77977e-06
7.7532e-06
7.72767e-06
7.70318e-06
7.67979e-06
7.65757e-06
7.63664e-06
7.61716e-06
7.59935e-06
7.58342e-06
7.56961e-06
7.55811e-06
7.54907e-06
7.54254e-06
7.53849e-06
7.53671e-06
7.53693e-06
7.53873e-06
7.54168e-06
7.54529e-06
7.54913e-06
7.55284e-06
7.55616e-06
7.55892e-06
7.56107e-06
7.56261e-06
7.56361e-06
7.56419e-06
7.56444e-06
7.56446e-06
7.56435e-06
7.56416e-06
7.56395e-06
7.56375e-06
7.56357e-06
7.56343e-06
7.56332e-06
7.56325e-06
7.56324e-06
7.56331e-06
7.5635e-06
7.56393e-06
7.56482e-06
7.56662e-06
7.57019e-06
7.57728e-06
7.59136e-06
7.61977e-06
7.67854e-06
7.8044e-06
8.08717e-06
8.68807e-06
9.65024e-06
7.99873e-06
7.96338e-06
7.92955e-06
7.89712e-06
7.86601e-06
7.83612e-06
7.8074e-06
7.77977e-06
7.75319e-06
7.72766e-06
7.70318e-06
7.67978e-06
7.65756e-06
7.63662e-06
7.61714e-06
7.59932e-06
7.58339e-06
7.56956e-06
7.55805e-06
7.549e-06
7.54246e-06
7.53839e-06
7.53661e-06
7.53681e-06
7.5386e-06
7.54154e-06
7.54514e-06
7.54898e-06
7.55268e-06
7.556e-06
7.55876e-06
7.5609e-06
7.56244e-06
7.56345e-06
7.56402e-06
7.56427e-06
7.5643e-06
7.56419e-06
7.56401e-06
7.5638e-06
7.5636e-06
7.56343e-06
7.56329e-06
7.56319e-06
7.56314e-06
7.56315e-06
7.56326e-06
7.56355e-06
7.56416e-06
7.5654e-06
7.56788e-06
7.5728e-06
7.58248e-06
7.60187e-06
7.64157e-06
7.72483e-06
7.90672e-06
8.31698e-06
9.05906e-06
9.84236e-06
7.99873e-06
7.96338e-06
7.92955e-06
7.89712e-06
7.86601e-06
7.83612e-06
7.80739e-06
7.77977e-06
7.75319e-06
7.72766e-06
7.70318e-06
7.67978e-06
7.65755e-06
7.63662e-06
7.61714e-06
7.59932e-06
7.58338e-06
7.56955e-06
7.55803e-06
7.54897e-06
7.54244e-06
7.53836e-06
7.53657e-06
7.53677e-06
7.53856e-06
7.54149e-06
7.54509e-06
7.54892e-06
7.55263e-06
7.55594e-06
7.55869e-06
7.56084e-06
7.56237e-06
7.56338e-06
7.56396e-06
7.56421e-06
7.56424e-06
7.56413e-06
7.56395e-06
7.56374e-06
7.56355e-06
7.56338e-06
7.56324e-06
7.56315e-06
7.56312e-06
7.56316e-06
7.56333e-06
7.56373e-06
7.56458e-06
7.56627e-06
7.56965e-06
7.57628e-06
7.58936e-06
7.61594e-06
7.67079e-06
7.78752e-06
8.04528e-06
8.60795e-06
9.45393e-06
9.85198e-06
7.99873e-06
7.96338e-06
7.92955e-06
7.89712e-06
7.86601e-06
7.83612e-06
7.80739e-06
7.77977e-06
7.75319e-06
7.72766e-06
7.70318e-06
7.67978e-06
7.65755e-06
7.63662e-06
7.61714e-06
7.59931e-06
7.58337e-06
7.56954e-06
7.55803e-06
7.54897e-06
7.54243e-06
7.53835e-06
7.53656e-06
7.53675e-06
7.53854e-06
7.54147e-06
7.54507e-06
7.5489e-06
7.55261e-06
7.55592e-06
7.55867e-06
7.56081e-06
7.56235e-06
7.56336e-06
7.56394e-06
7.56419e-06
7.56422e-06
7.56411e-06
7.56393e-06
7.56373e-06
7.56353e-06
7.56336e-06
7.56323e-06
7.56316e-06
7.56314e-06
7.56322e-06
7.56347e-06
7.56403e-06
7.56517e-06
7.56745e-06
7.57194e-06
7.58074e-06
7.59824e-06
7.63393e-06
7.70843e-06
7.86972e-06
8.22751e-06
8.93462e-06
9.83573e-06
9.87027e-06
7.99873e-06
7.96338e-06
7.92955e-06
7.89712e-06
7.86601e-06
7.83612e-06
7.80739e-06
7.77977e-06
7.75319e-06
7.72766e-06
7.70318e-06
7.67978e-06
7.65755e-06
7.63662e-06
7.61713e-06
7.59931e-06
7.58337e-06
7.56954e-06
7.55802e-06
7.54897e-06
7.54242e-06
7.53835e-06
7.53655e-06
7.53675e-06
7.53854e-06
7.54147e-06
7.54506e-06
7.54889e-06
7.5526e-06
7.55591e-06
7.55867e-06
7.56081e-06
7.56235e-06
7.56335e-06
7.56393e-06
7.56418e-06
7.56421e-06
7.5641e-06
7.56392e-06
7.56372e-06
7.56353e-06
7.56337e-06
7.56324e-06
7.56318e-06
7.56319e-06
7.56332e-06
7.56367e-06
7.56441e-06
7.56593e-06
7.56893e-06
7.57481e-06
7.58633e-06
7.60953e-06
7.65725e-06
7.75814e-06
7.97972e-06
8.46495e-06
9.26955e-06
9.97029e-06
9.93278e-06
7.99873e-06
7.96338e-06
7.92955e-06
7.89712e-06
7.86601e-06
7.83612e-06
7.80739e-06
7.77977e-06
7.75319e-06
7.72766e-06
7.70318e-06
7.67978e-06
7.65755e-06
7.63662e-06
7.61713e-06
7.59931e-06
7.58337e-06
7.56954e-06
7.55802e-06
7.54896e-06
7.54242e-06
7.53835e-06
7.53655e-06
7.53675e-06
7.53854e-06
7.54146e-06
7.54506e-06
7.54889e-06
7.5526e-06
7.55591e-06
7.55866e-06
7.56081e-06
7.56234e-06
7.56335e-06
7.56393e-06
7.56418e-06
7.56421e-06
7.5641e-06
7.56392e-06
7.56372e-06
7.56353e-06
7.56337e-06
7.56326e-06
7.56321e-06
7.56325e-06
7.56344e-06
7.56391e-06
7.5649e-06
7.56688e-06
7.57076e-06
7.57833e-06
7.59325e-06
7.62363e-06
7.68666e-06
7.82167e-06
8.12006e-06
8.74591e-06
9.60088e-06
9.97418e-06
9.94025e-06
7.99873e-06
7.96338e-06
7.92955e-06
7.89712e-06
7.86601e-06
7.83612e-06
7.80739e-06
7.77977e-06
7.75319e-06
7.72766e-06
7.70318e-06
7.67978e-06
7.65755e-06
7.63662e-06
7.61713e-06
7.59931e-06
7.58337e-06
7.56954e-06
7.55802e-06
7.54896e-06
7.54242e-06
7.53835e-06
7.53655e-06
7.53675e-06
7.53854e-06
7.54146e-06
7.54506e-06
7.54889e-06
7.5526e-06
7.55591e-06
7.55866e-06
7.5608e-06
7.56234e-06
7.56335e-06
7.56393e-06
7.56418e-06
7.56421e-06
7.5641e-06
7.56393e-06
7.56373e-06
7.56354e-06
7.56338e-06
7.56328e-06
7.56325e-06
7.56333e-06
7.5636e-06
7.56422e-06
7.56549e-06
7.56802e-06
7.57295e-06
7.58257e-06
7.60172e-06
7.64095e-06
7.72316e-06
7.9019e-06
8.29628e-06
9.04383e-06
9.9067e-06
9.96151e-06
9.92466e-06
7.99873e-06
7.96338e-06
7.92955e-06
7.89712e-06
7.86601e-06
7.83612e-06
7.80739e-06
7.77977e-06
7.75319e-06
7.72766e-06
7.70318e-06
7.67978e-06
7.65755e-06
7.63662e-06
7.61713e-06
7.59931e-06
7.58337e-06
7.56954e-06
7.55802e-06
7.54896e-06
7.54242e-06
7.53835e-06
7.53655e-06
7.53675e-06
7.53854e-06
7.54146e-06
7.54506e-06
7.54889e-06
7.5526e-06
7.55591e-06
7.55866e-06
7.5608e-06
7.56234e-06
7.56335e-06
7.56393e-06
7.56418e-06
7.56421e-06
7.5641e-06
7.56393e-06
7.56373e-06
7.56355e-06
7.5634e-06
7.5633e-06
7.5633e-06
7.56342e-06
7.56378e-06
7.56458e-06
7.5662e-06
7.56938e-06
7.57555e-06
7.58762e-06
7.61199e-06
7.6622e-06
7.76856e-06
8.00245e-06
8.51041e-06
9.33739e-06
1.00356e-05
1.0011e-05
9.91531e-06
7.99873e-06
7.96338e-06
7.92955e-06
7.89712e-06
7.86601e-06
7.83612e-06
7.80739e-06
7.77977e-06
7.75319e-06
7.72766e-06
7.70318e-06
7.67978e-06
7.65755e-06
7.63662e-06
7.61713e-06
7.59931e-06
7.58337e-06
7.56954e-06
7.55802e-06
7.54896e-06
7.54242e-06
7.53835e-06
7.53655e-06
7.53675e-06
7.53854e-06
7.54146e-06
7.54506e-06
7.54889e-06
7.5526e-06
7.55591e-06
7.55866e-06
7.5608e-06
7.56234e-06
7.56335e-06
7.56393e-06
7.56418e-06
7.56421e-06
7.56411e-06
7.56393e-06
7.56374e-06
7.56355e-06
7.56341e-06
7.56333e-06
7.56335e-06
7.56353e-06
7.564e-06
7.56501e-06
7.56703e-06
7.57095e-06
7.57857e-06
7.59357e-06
7.62413e-06
7.68754e-06
7.82341e-06
8.12377e-06
8.75269e-06
9.61786e-06
1.00482e-05
1.00183e-05
9.93214e-06
7.99873e-06
7.96338e-06
7.92955e-06
7.89712e-06
7.86601e-06
7.83612e-06
7.80739e-06
7.77977e-06
7.75319e-06
7.72766e-06
7.70318e-06
7.67978e-06
7.65755e-06
7.63662e-06
7.61713e-06
7.59931e-06
7.58337e-06
7.56954e-06
7.55802e-06
7.54896e-06
7.54242e-06
7.53835e-06
7.53655e-06
7.53675e-06
7.53854e-06
7.54146e-06
7.54506e-06
7.54889e-06
7.5526e-06
7.55591e-06
7.55866e-06
7.56081e-06
7.56234e-06
7.56335e-06
7.56393e-06
7.56418e-06
7.56421e-06
7.56411e-06
7.56393e-06
7.56374e-06
7.56356e-06
7.56343e-06
7.56337e-06
7.56342e-06
7.56366e-06
7.56426e-06
7.5655e-06
7.56797e-06
7.57275e-06
7.58202e-06
7.6005e-06
7.6383e-06
7.71736e-06
7.8888e-06
8.26752e-06
9.00404e-06
9.8658e-06
1.00277e-05
1.00002e-05
9.92293e-06
7.99873e-06
7.96338e-06
7.92955e-06
7.89712e-06
7.86601e-06
7.83612e-06
7.80739e-06
7.77977e-06
7.75319e-06
7.72766e-06
7.70318e-06
7.67978e-06
7.65755e-06
7.63662e-06
7.61713e-06
7.59931e-06
7.58337e-06
7.56954e-06
7.55802e-06
7.54896e-06
7.54242e-06
7.53835e-06
7.53655e-06
7.53675e-06
7.53854e-06
7.54146e-06
7.54506e-06
7.54889e-06
7.5526e-06
7.55591e-06
7.55866e-06
7.56081e-06
7.56234e-06
7.56335e-06
7.56393e-06
7.56418e-06
7.56421e-06
7.56411e-06
7.56394e-06
7.56375e-06
7.56358e-06
7.56345e-06
7.56341e-06
7.56349e-06
7.56381e-06
7.56454e-06
7.56606e-06
7.56902e-06
7.57475e-06
7.58593e-06
7.60841e-06
7.65464e-06
7.75216e-06
7.96583e-06
8.43329e-06
9.2477e-06
1.0049e-05
1.00256e-05
9.97307e-06
9.891e-06
7.99873e-06
7.96338e-06
7.92955e-06
7.89712e-06
7.86601e-06
7.83612e-06
7.80739e-06
7.77977e-06
7.75319e-06
7.72766e-06
7.70318e-06
7.67978e-06
7.65755e-06
7.63662e-06
7.61713e-06
7.59931e-06
7.58337e-06
7.56954e-06
7.55802e-06
7.54896e-06
7.54242e-06
7.53835e-06
7.53655e-06
7.53675e-06
7.53854e-06
7.54146e-06
7.54506e-06
7.54889e-06
7.5526e-06
7.55591e-06
7.55866e-06
7.56081e-06
7.56235e-06
7.56335e-06
7.56393e-06
7.56418e-06
7.56422e-06
7.56411e-06
7.56394e-06
7.56376e-06
7.56359e-06
7.56347e-06
7.56345e-06
7.56358e-06
7.56398e-06
7.56486e-06
7.56666e-06
7.57018e-06
7.57697e-06
7.59026e-06
7.61728e-06
7.67312e-06
7.79192e-06
8.05392e-06
8.61596e-06
9.47694e-06
1.01013e-05
1.00684e-05
9.97186e-06
9.83857e-06
7.99873e-06
7.96338e-06
7.92955e-06
7.89712e-06
7.86601e-06
7.83612e-06
7.80739e-06
7.77977e-06
7.75319e-06
7.72766e-06
7.70318e-06
7.67978e-06
7.65755e-06
7.63662e-06
7.61713e-06
7.59931e-06
7.58337e-06
7.56954e-06
7.55802e-06
7.54896e-06
7.54242e-06
7.53835e-06
7.53655e-06
7.53675e-06
7.53854e-06
7.54146e-06
7.54506e-06
7.54889e-06
7.5526e-06
7.55591e-06
7.55866e-06
7.56081e-06
7.56235e-06
7.56335e-06
7.56393e-06
7.56419e-06
7.56422e-06
7.56412e-06
7.56395e-06
7.56376e-06
7.5636e-06
7.5635e-06
7.5635e-06
7.56367e-06
7.56415e-06
7.56521e-06
7.56732e-06
7.57142e-06
7.57936e-06
7.59504e-06
7.62702e-06
7.69343e-06
7.836e-06
8.15144e-06
8.8061e-06
9.68648e-06
1.01057e-05
1.00723e-05
9.98036e-06
9.80267e-06
7.99873e-06
7.96338e-06
7.92955e-06
7.89712e-06
7.86601e-06
7.83612e-06
7.80739e-06
7.77977e-06
7.75319e-06
7.72766e-06
7.70318e-06
7.67978e-06
7.65755e-06
7.63662e-06
7.61713e-06
7.59931e-06
7.58337e-06
7.56954e-06
7.55802e-06
7.54896e-06
7.54242e-06
7.53835e-06
7.53655e-06
7.53675e-06
7.53854e-06
7.54146e-06
7.54506e-06
7.54889e-06
7.5526e-06
7.55591e-06
7.55867e-06
7.56081e-06
7.56235e-06
7.56335e-06
7.56393e-06
7.56419e-06
7.56422e-06
7.56412e-06
7.56395e-06
7.56377e-06
7.56362e-06
7.56352e-06
7.56355e-06
7.56377e-06
7.56434e-06
7.56557e-06
7.56802e-06
7.57274e-06
7.5819e-06
7.60014e-06
7.63746e-06
7.71546e-06
7.88437e-06
8.25752e-06
8.99211e-06
9.86665e-06
1.00934e-05
1.00618e-05
9.97616e-06
9.78614e-06
7.99873e-06
7.96338e-06
7.92955e-06
7.89712e-06
7.86601e-06
7.83612e-06
7.80739e-06
7.77977e-06
7.75319e-06
7.72766e-06
7.70318e-06
7.67978e-06
7.65755e-06
7.63662e-06
7.61713e-06
7.59931e-06
7.58337e-06
7.56954e-06
7.55802e-06
7.54896e-06
7.54242e-06
7.53835e-06
7.53655e-06
7.53675e-06
7.53854e-06
7.54146e-06
7.54506e-06
7.54889e-06
7.5526e-06
7.55591e-06
7.55867e-06
7.56081e-06
7.56235e-06
7.56336e-06
7.56393e-06
7.56419e-06
7.56422e-06
7.56412e-06
7.56396e-06
7.56378e-06
7.56363e-06
7.56355e-06
7.5636e-06
7.56387e-06
7.56454e-06
7.56595e-06
7.56874e-06
7.57411e-06
7.58454e-06
7.60549e-06
7.64848e-06
7.73887e-06
7.93615e-06
8.36949e-06
9.16633e-06
1.00092e-05
1.00732e-05
1.00437e-05
9.96031e-06
9.78387e-06
7.99873e-06
7.96338e-06
7.92955e-06
7.89712e-06
7.86601e-06
7.83612e-06
7.80739e-06
7.77977e-06
7.75319e-06
7.72766e-06
7.70318e-06
7.67978e-06
7.65755e-06
7.63662e-06
7.61713e-06
7.59931e-06
7.58337e-06
7.56954e-06
7.55802e-06
7.54896e-06
7.54242e-06
7.53835e-06
7.53655e-06
7.53675e-06
7.53854e-06
7.54146e-06
7.54506e-06
7.54889e-06
7.5526e-06
7.55591e-06
7.55867e-06
7.56081e-06
7.56235e-06
7.56336e-06
7.56393e-06
7.56419e-06
7.56422e-06
7.56413e-06
7.56396e-06
7.56379e-06
7.56364e-06
7.56358e-06
7.56365e-06
7.56398e-06
7.56474e-06
7.56634e-06
7.56946e-06
7.57549e-06
7.58723e-06
7.61098e-06
7.65985e-06
7.76319e-06
7.99001e-06
8.48351e-06
9.32352e-06
1.01061e-05
1.00743e-05
1.00193e-05
9.94004e-06
9.77948e-06
7.99873e-06
7.96338e-06
7.92955e-06
7.89712e-06
7.86601e-06
7.83612e-06
7.80739e-06
7.77977e-06
7.75319e-06
7.72766e-06
7.70318e-06
7.67978e-06
7.65755e-06
7.63662e-06
7.61713e-06
7.59931e-06
7.58337e-06
7.56954e-06
7.55802e-06
7.54896e-06
7.54242e-06
7.53835e-06
7.53655e-06
7.53675e-06
7.53854e-06
7.54146e-06
7.54506e-06
7.54889e-06
7.5526e-06
7.55591e-06
7.55867e-06
7.56081e-06
7.56235e-06
7.56336e-06
7.56394e-06
7.56419e-06
7.56423e-06
7.56413e-06
7.56397e-06
7.56379e-06
7.56366e-06
7.56361e-06
7.56371e-06
7.56408e-06
7.56494e-06
7.56672e-06
7.57018e-06
7.57685e-06
7.5899e-06
7.61645e-06
7.67125e-06
7.78772e-06
8.04434e-06
8.5958e-06
9.46351e-06
1.01445e-05
1.0111e-05
1.00017e-05
9.90674e-06
9.77308e-06
7.99873e-06
7.96338e-06
7.92955e-06
7.89712e-06
7.86601e-06
7.83612e-06
7.80739e-06
7.77977e-06
7.75319e-06
7.72766e-06
7.70318e-06
7.67978e-06
7.65755e-06
7.63662e-06
7.61713e-06
7.59931e-06
7.58337e-06
7.56954e-06
7.55802e-06
7.54896e-06
7.54242e-06
7.53835e-06
7.53655e-06
7.53675e-06
7.53854e-06
7.54146e-06
7.54506e-06
7.54889e-06
7.5526e-06
7.55591e-06
7.55867e-06
7.56081e-06
7.56235e-06
7.56336e-06
7.56394e-06
7.56419e-06
7.56423e-06
7.56413e-06
7.56397e-06
7.5638e-06
7.56367e-06
7.56363e-06
7.56376e-06
7.56418e-06
7.56514e-06
7.56708e-06
7.57087e-06
7.57816e-06
7.59251e-06
7.62173e-06
7.68228e-06
7.81164e-06
8.09723e-06
8.70204e-06
9.58567e-06
1.01619e-05
1.01199e-05
1.00093e-05
9.87649e-06
9.76549e-06
7.99873e-06
7.96338e-06
7.92955e-06
7.89712e-06
7.86601e-06
7.83612e-06
7.80739e-06
7.77977e-06
7.75319e-06
7.72766e-06
7.70318e-06
7.67978e-06
7.65755e-06
7.63662e-06
7.61713e-06
7.59931e-06
7.58337e-06
7.56954e-06
7.55802e-06
7.54896e-06
7.54242e-06
7.53835e-06
7.53655e-06
7.53675e-06
7.53854e-06
7.54146e-06
7.54506e-06
7.54889e-06
7.5526e-06
7.55591e-06
7.55867e-06
7.56081e-06
7.56235e-06
7.56336e-06
7.56394e-06
7.56419e-06
7.56423e-06
7.56413e-06
7.56397e-06
7.56381e-06
7.56369e-06
7.56366e-06
7.56381e-06
7.56427e-06
7.56532e-06
7.56742e-06
7.5715e-06
7.57938e-06
7.59496e-06
7.62672e-06
7.69267e-06
7.83414e-06
8.14705e-06
8.79809e-06
9.68905e-06
1.01661e-05
1.01239e-05
1.00145e-05
9.85386e-06
9.75797e-06
7.99873e-06
7.96338e-06
7.92955e-06
7.89712e-06
7.86601e-06
7.83612e-06
7.80739e-06
7.77977e-06
7.75319e-06
7.72766e-06
7.70318e-06
7.67978e-06
7.65755e-06
7.63662e-06
7.61713e-06
7.59931e-06
7.58337e-06
7.56954e-06
7.55802e-06
7.54896e-06
7.54242e-06
7.53835e-06
7.53655e-06
7.53675e-06
7.53854e-06
7.54146e-06
7.54506e-06
7.54889e-06
7.5526e-06
7.55591e-06
7.55867e-06
7.56081e-06
7.56235e-06
7.56336e-06
7.56394e-06
7.56419e-06
7.56423e-06
7.56414e-06
7.56398e-06
7.56382e-06
7.5637e-06
7.56368e-06
7.56385e-06
7.56436e-06
7.56548e-06
7.56772e-06
7.57207e-06
7.58047e-06
7.59714e-06
7.63118e-06
7.70205e-06
7.85465e-06
8.19201e-06
8.8809e-06
9.77317e-06
1.01647e-05
1.01234e-05
1.00172e-05
9.83828e-06
9.75128e-06
7.99873e-06
7.96338e-06
7.92955e-06
7.89712e-06
7.86601e-06
7.83612e-06
7.80739e-06
7.77977e-06
7.75319e-06
7.72766e-06
7.70318e-06
7.67978e-06
7.65755e-06
7.63662e-06
7.61713e-06
7.59931e-06
7.58337e-06
7.56954e-06
7.55802e-06
7.54896e-06
7.54242e-06
7.53835e-06
7.53655e-06
7.53675e-06
7.53854e-06
7.54146e-06
7.54506e-06
7.54889e-06
7.5526e-06
7.55591e-06
7.55867e-06
7.56081e-06
7.56235e-06
7.56336e-06
7.56394e-06
7.5642e-06
7.56423e-06
7.56414e-06
7.56398e-06
7.56382e-06
7.56371e-06
7.5637e-06
7.56389e-06
7.56443e-06
7.56561e-06
7.56798e-06
7.57255e-06
7.58139e-06
7.599e-06
7.63498e-06
7.71005e-06
7.87221e-06
8.2305e-06
8.94862e-06
9.83851e-06
1.0161e-05
1.01208e-05
1.00179e-05
9.82811e-06
9.7459e-06
7.99873e-06
7.96338e-06
7.92955e-06
7.89712e-06
7.86601e-06
7.83612e-06
7.80739e-06
7.77977e-06
7.75319e-06
7.72766e-06
7.70318e-06
7.67978e-06
7.65755e-06
7.63662e-06
7.61713e-06
7.59931e-06
7.58337e-06
7.56954e-06
7.55802e-06
7.54896e-06
7.54242e-06
7.53835e-06
7.53655e-06
7.53675e-06
7.53854e-06
7.54146e-06
7.54506e-06
7.54889e-06
7.5526e-06
7.55591e-06
7.55867e-06
7.56081e-06
7.56235e-06
7.56336e-06
7.56394e-06
7.5642e-06
7.56423e-06
7.56414e-06
7.56398e-06
7.56383e-06
7.56372e-06
7.56372e-06
7.56392e-06
7.56448e-06
7.56572e-06
7.56818e-06
7.57293e-06
7.58212e-06
7.60046e-06
7.63797e-06
7.71637e-06
7.88612e-06
8.26086e-06
9.00011e-06
9.88612e-06
1.0157e-05
1.01177e-05
1.00174e-05
9.82169e-06
9.74195e-06
7.99873e-06
7.96338e-06
7.92955e-06
7.89712e-06
7.86601e-06
7.83612e-06
7.80739e-06
7.77977e-06
7.75319e-06
7.72766e-06
7.70318e-06
7.67978e-06
7.65755e-06
7.63662e-06
7.61713e-06
7.59931e-06
7.58337e-06
7.56954e-06
7.55802e-06
7.54896e-06
7.54242e-06
7.53835e-06
7.53655e-06
7.53675e-06
7.53854e-06
7.54146e-06
7.54506e-06
7.54889e-06
7.5526e-06
7.55591e-06
7.55867e-06
7.56081e-06
7.56235e-06
7.56336e-06
7.56394e-06
7.5642e-06
7.56423e-06
7.56414e-06
7.56399e-06
7.56383e-06
7.56372e-06
7.56373e-06
7.56394e-06
7.56452e-06
7.56579e-06
7.56832e-06
7.57319e-06
7.58262e-06
7.60146e-06
7.64004e-06
7.72074e-06
7.89578e-06
8.28189e-06
9.03482e-06
9.91713e-06
1.01539e-05
1.01153e-05
1.00167e-05
9.81815e-06
9.7394e-06
7.99873e-06
7.96338e-06
7.92955e-06
7.89712e-06
7.86601e-06
7.83612e-06
7.80739e-06
7.77977e-06
7.75319e-06
7.72766e-06
7.70318e-06
7.67978e-06
7.65755e-06
7.63662e-06
7.61713e-06
7.59931e-06
7.58337e-06
7.56954e-06
7.55802e-06
7.54896e-06
7.54242e-06
7.53835e-06
7.53655e-06
7.53675e-06
7.53854e-06
7.54146e-06
7.54506e-06
7.54889e-06
7.5526e-06
7.55591e-06
7.55867e-06
7.56081e-06
7.56235e-06
7.56336e-06
7.56394e-06
7.5642e-06
7.56423e-06
7.56414e-06
7.56399e-06
7.56383e-06
7.56373e-06
7.56373e-06
7.56395e-06
7.56454e-06
7.56583e-06
7.56839e-06
7.57332e-06
7.58287e-06
7.60197e-06
7.64107e-06
7.72293e-06
7.90061e-06
8.29231e-06
9.05155e-06
9.93143e-06
1.01525e-05
1.01142e-05
1.00163e-05
9.81671e-06
9.73834e-06
7.99873e-06
7.96338e-06
7.92955e-06
7.89712e-06
7.86601e-06
7.83612e-06
7.80739e-06
7.77977e-06
7.75319e-06
7.72766e-06
7.70318e-06
7.67978e-06
7.65755e-06
7.63662e-06
7.61713e-06
7.59931e-06
7.58337e-06
7.56954e-06
7.55802e-06
7.54896e-06
7.54242e-06
7.53835e-06
7.53655e-06
7.53675e-06
7.53854e-06
7.54146e-06
7.54506e-06
7.54889e-06
7.5526e-06
7.55591e-06
7.55867e-06
7.56081e-06
7.56235e-06
7.56336e-06
7.56394e-06
7.5642e-06
7.56423e-06
7.56414e-06
7.56399e-06
7.56383e-06
7.56373e-06
7.56373e-06
7.56395e-06
7.56454e-06
7.56583e-06
7.56839e-06
7.57332e-06
7.58287e-06
7.60197e-06
7.64107e-06
7.72293e-06
7.9006e-06
8.29229e-06
9.05151e-06
9.93138e-06
1.01525e-05
1.01142e-05
1.00163e-05
9.81674e-06
9.73837e-06
7.99873e-06
7.96338e-06
7.92955e-06
7.89712e-06
7.86601e-06
7.83612e-06
7.80739e-06
7.77977e-06
7.75319e-06
7.72766e-06
7.70318e-06
7.67978e-06
7.65755e-06
7.63662e-06
7.61713e-06
7.59931e-06
7.58337e-06
7.56954e-06
7.55802e-06
7.54896e-06
7.54242e-06
7.53835e-06
7.53655e-06
7.53675e-06
7.53854e-06
7.54146e-06
7.54506e-06
7.54889e-06
7.5526e-06
7.55591e-06
7.55867e-06
7.56081e-06
7.56235e-06
7.56336e-06
7.56394e-06
7.5642e-06
7.56423e-06
7.56414e-06
7.56399e-06
7.56383e-06
7.56372e-06
7.56373e-06
7.56394e-06
7.56452e-06
7.56579e-06
7.56832e-06
7.57319e-06
7.58262e-06
7.60146e-06
7.64003e-06
7.72073e-06
7.89576e-06
8.28183e-06
9.03472e-06
9.91702e-06
1.01539e-05
1.01153e-05
1.00168e-05
9.81823e-06
9.73947e-06
7.99873e-06
7.96338e-06
7.92955e-06
7.89712e-06
7.86601e-06
7.83612e-06
7.80739e-06
7.77977e-06
7.75319e-06
7.72766e-06
7.70318e-06
7.67978e-06
7.65755e-06
7.63662e-06
7.61713e-06
7.59931e-06
7.58337e-06
7.56954e-06
7.55802e-06
7.54896e-06
7.54242e-06
7.53835e-06
7.53655e-06
7.53675e-06
7.53854e-06
7.54146e-06
7.54506e-06
7.54889e-06
7.5526e-06
7.55591e-06
7.55867e-06
7.56081e-06
7.56235e-06
7.56336e-06
7.56394e-06
7.5642e-06
7.56423e-06
7.56414e-06
7.56398e-06
7.56383e-06
7.56372e-06
7.56372e-06
7.56392e-06
7.56448e-06
7.56572e-06
7.56818e-06
7.57293e-06
7.58212e-06
7.60045e-06
7.63796e-06
7.71635e-06
7.88608e-06
8.26078e-06
8.99994e-06
9.88595e-06
1.01571e-05
1.01178e-05
1.00175e-05
9.82184e-06
9.74208e-06
7.99873e-06
7.96338e-06
7.92955e-06
7.89712e-06
7.86601e-06
7.83612e-06
7.80739e-06
7.77977e-06
7.75319e-06
7.72766e-06
7.70318e-06
7.67978e-06
7.65755e-06
7.63662e-06
7.61713e-06
7.59931e-06
7.58337e-06
7.56954e-06
7.55802e-06
7.54896e-06
7.54242e-06
7.53835e-06
7.53655e-06
7.53675e-06
7.53854e-06
7.54146e-06
7.54506e-06
7.54889e-06
7.5526e-06
7.55591e-06
7.55867e-06
7.56081e-06
7.56235e-06
7.56336e-06
7.56394e-06
7.5642e-06
7.56423e-06
7.56414e-06
7.56398e-06
7.56382e-06
7.56371e-06
7.5637e-06
7.56389e-06
7.56443e-06
7.56561e-06
7.56798e-06
7.57255e-06
7.5814e-06
7.599e-06
7.63497e-06
7.71003e-06
7.87216e-06
8.23038e-06
8.94842e-06
9.83833e-06
1.01612e-05
1.01209e-05
1.0018e-05
9.8283e-06
9.74605e-06
7.99873e-06
7.96338e-06
7.92955e-06
7.89712e-06
7.86601e-06
7.83612e-06
7.80739e-06
7.77977e-06
7.75319e-06
7.72766e-06
7.70318e-06
7.67978e-06
7.65755e-06
7.63662e-06
7.61713e-06
7.59931e-06
7.58337e-06
7.56954e-06
7.55802e-06
7.54896e-06
7.54242e-06
7.53835e-06
7.53655e-06
7.53675e-06
7.53854e-06
7.54146e-06
7.54506e-06
7.54889e-06
7.5526e-06
7.55591e-06
7.55867e-06
7.56081e-06
7.56235e-06
7.56336e-06
7.56394e-06
7.56419e-06
7.56423e-06
7.56414e-06
7.56398e-06
7.56382e-06
7.5637e-06
7.56368e-06
7.56385e-06
7.56436e-06
7.56548e-06
7.56772e-06
7.57207e-06
7.58047e-06
7.59714e-06
7.63117e-06
7.70202e-06
7.8546e-06
8.19188e-06
8.88068e-06
9.77302e-06
1.01649e-05
1.01236e-05
1.00174e-05
9.83849e-06
9.75146e-06
7.99873e-06
7.96338e-06
7.92955e-06
7.89712e-06
7.86601e-06
7.83612e-06
7.80739e-06
7.77977e-06
7.75319e-06
7.72766e-06
7.70318e-06
7.67978e-06
7.65755e-06
7.63662e-06
7.61713e-06
7.59931e-06
7.58337e-06
7.56954e-06
7.55802e-06
7.54896e-06
7.54242e-06
7.53835e-06
7.53655e-06
7.53675e-06
7.53854e-06
7.54146e-06
7.54506e-06
7.54889e-06
7.5526e-06
7.55591e-06
7.55867e-06
7.56081e-06
7.56235e-06
7.56336e-06
7.56394e-06
7.56419e-06
7.56423e-06
7.56413e-06
7.56398e-06
7.56381e-06
7.56369e-06
7.56366e-06
7.56381e-06
7.56427e-06
7.56532e-06
7.56742e-06
7.57151e-06
7.57938e-06
7.59496e-06
7.62671e-06
7.69264e-06
7.83408e-06
8.14691e-06
8.79786e-06
9.68894e-06
1.01664e-05
1.01241e-05
1.00147e-05
9.85409e-06