/*--------------------------------*- C++ -*----------------------------------*\
  =========                 |
  \\      /  F ield         | OpenFOAM: The Open Source CFD Toolbox
   \\    /   O peration     | Website:  https://openfoam.org
    \\  /    A nd           | Version:  9
     \\/     M anipulation  |
\*---------------------------------------------------------------------------*/
FoamFile
{
    format      ascii;
    class       volScalarField;
    location    "0.004";
    object      epsilon;
}
// * * * * * * * * * * * * * * * * * * * * * * * * * * * * * * * * * * * * * //

dimensions      [0 2 -3 0 0 0 0];

internalField   nonuniform List<scalar> 
36400
(
250676
234071
219004
205297
192801
181387
170947
161391
152644
144642
137330
130661
124591
119076
114075
109549
105458
101764
98432.1
95431.6
92736.4
90326.2
88186.8
86309.1
84688.5
83321.8
82204.3
81326.6
80671.3
80212.2
79914.1
79735.6
79632.5
79561.5
79484.3
79370.9
79201.7
78969.8
78681.3
78355.5
78022.9
77722.2
77495.6
77383.1
77415.9
77611.8
77972.3
78482.3
79113.9
79831.2
80595.4
81369
82118.7
82817.9
83448.7
84005.1
84493.5
84925.9
85285.2
85360.1
250676
234071
219003
205295
192797
181378
170930
161361
152593
144562
137210
130489
124353
118760
113671
109047
104850
101047
97605.1
94496
91696
89185.7
86950.8
84981.5
83270.8
81813.1
80601.4
79624.4
78864.7
78297.3
77890.4
77606.9
77407.5
77253.9
77111.8
76953.9
76761.5
76526.5
76252
75951.9
75649.5
75374.9
75161.4
75040.2
75035.9
75162.3
75420.5
75798.5
76274.3
76819.3
77402.5
77994.2
78567.5
79101.2
79580.9
80001.8
80369.9
80698.4
80987.4
81126
250676
234070
219002
205293
192790
181364
170905
161316
152518
144443
137031
130230
123996
118285
113060
108284
103925
99952
96337.9
93058.4
90092.9
87424.2
85038.7
82925.4
81075.2
79479.2
78127.1
77005.6
76096.8
75377.5
74820.2
74393.5
74064.9
73802.5
73577.7
73366.6
73151.7
72923.5
72680.4
72428.6
72181.4
71957.1
71776.2
71658.1
71618.3
71665.3
71799.5
72012.9
72291.3
72616
72966.9
73324.3
73670.7
73992
74279.1
74529.7
74749.9
74955
75166
75387.6
250676
234070
219001
205290
192784
181352
170881
161274
152448
144331
136861
129986
123656
117831
112474
107550
103030
98887.8
95100.5
91648.2
88513.7
85682.7
83142.8
80883
78892.8
77161.3
75675.8
74421.4
73379.6
72528.8
71844.4
71299.8
70867.6
70521.3
70236.4
69992.1
69771.8
69564.3
69363.9
69170.3
68987.9
68824.6
68690
68593.7
68543.3
68542.7
68591.8
68685.9
68817.1
68975
69148.2
69325.7
69497.9
69657.3
69799.5
69925.4
70042.8
70170.6
70348.7
70675.7
250676
234070
219000
205288
192780
181344
170864
161244
152398
144251
136740
129810
123411
117501
112045
107009
102367
98094.9
94173.1
90585
87316.6
84356.1
81692.8
79316.4
77216.4
75381
73796.6
72447.2
71314.2
70376.6
69611.4
68994.6
68501.8
68109.2
67795.1
67540.2
67328.3
67147.1
66987.9
66846.1
66720.1
66611
66521.3
66454.1
66411.9
66395.8
66405.3
66437.7
66488.9
66553.7
66626.5
66702.1
66776
66845.2
66909.6
66973.1
67047.6
67159.5
67371.6
67879
250676
234070
219000
205287
192778
181339
170855
161227
152369
144204
136669
129706
123265
117305
111788
106683
101964
97609.2
93600.9
89924.5
86568.2
83521.9
80776.4
78322.5
76150.2
74247.7
72601.1
71194.3
70008.6
69023.1
68215.5
67562.8
67041.6
66629.8
66306.4
66052.8
65853
65693.8
65565.2
65459.7
65372.7
65301.4
65244.5
65201.6
65172.5
65156.8
65153.6
65161.3
65178
65201.2
65228.4
65257.7
65287.6
65318.4
65353
65399.7
65477
65626.1
65951.5
66817.5
250676
234070
219000
205287
192777
181336
170850
161219
152354
144181
136634
129654
123192
117205
111656
106514
101754
97354.7
93298.7
89573
86167
83071.8
80279.1
77780.6
75566.8
73626.2
71945.3
70507.7
69294.8
68285.9
67458.7
66790.4
66258.2
65840
65515.5
65266.1
65075.7
64930.8
64820.4
64736
64671.3
64621.7
64584.1
64556.5
64537.5
64525.8
64520.6
64520.6
64524.9
64532.5
64542.5
64554.5
64569.3
64589.4
64621.1
64678.6
64791.7
65029.8
65582
67151.2
250676
234070
219000
205286
192776
181335
170848
161215
152348
144171
136618
129631
123159
117160
111597
106438
101659
97237.4
93158.2
89408.4
85977.7
82857.8
80041.2
77519.9
75284.9
73325.1
71626.9
70174.3
68948.6
67929
67093.4
66419
65882.9
65463.2
65139.4
64893.2
64708.2
64570.9
64469.7
64395.8
64342
64303.1
64275.2
64255.5
64242.2
64233.7
64229
64227.3
64228
64230.7
64235.4
64243.1
64255.8
64278.6
64322.3
64409.7
64590.8
64987.3
65959.5
68805.6
250676
234070
219000
205286
192776
181335
170847
161214
152346
144168
136612
129622
123147
117143
111573
106407
101619
97188.9
93099.7
89339.1
85897.4
82766.4
79938.9
77407.2
75162.4
73193.7
71487.6
70028.2
68796.8
67772.7
66933.7
66256.9
65719.4
65299.5
64976.4
64731.9
64549.6
64415.6
64318.5
64249.1
64200.1
64165.8
64142.1
64126
64115.3
64108.6
64104.6
64102.8
64102.7
64104.5
64108.8
64117.3
64134
64167
64233.6
64370.5
64661.1
65324.2
67045.4
71863.9
250676
234070
219000
205286
192776
181335
170847
161213
152345
144166
136610
129619
123142
117136
111564
106396
101605
97170.6
93077.4
89312.6
85866.4
82730.8
79898.7
77362.6
75113.7
73141.3
71431.9
69969.6
68735.8
67709.9
66869.5
66191.8
65653.9
65233.9
64911.3
64667.4
64486.2
64353.6
64258.2
64190.5
64143.3
64110.8
64088.8
64074.1
64064.6
64058.6
64055.1
64053.5
64053.7
64056.1
64061.8
64073.9
64098.3
64147.6
64248.3
64458.2
64916.2
66011.9
68958.9
75956.2
250676
234070
219000
205286
192776
181335
170847
161213
152345
144166
136609
129618
123141
117134
111562
106392
101600
97164.3
93069.6
89303.2
85855.3
82718
79884.2
77346.4
75095.9
73122
71411.3
69947.9
68713.2
67686.5
66845.6
66167.5
65629.5
65209.5
64887
64643.5
64462.6
64330.5
64235.7
64168.7
64122.1
64090.2
64068.8
64054.7
64045.6
64039.9
64036.8
64035.6
64036.4
64040.1
64048.5
64065.9
64101.1
64172.3
64318.8
64630.3
65335.7
67106
71823.5
79982.2
250676
234070
219000
205286
192776
181335
170847
161213
152345
144166
136609
129618
123140
117133
111561
106391
101598
97162.2
93067.1
89300.1
85851.6
82713.7
79879.3
77340.9
75089.8
73115.3
71404.2
69940.3
68705.3
67678.3
66837.2
66159.1
65621
65201
64878.5
64635.1
64454.4
64322.5
64227.8
64161
64114.6
64083
64061.8
64047.9
64038.9
64033.5
64030.6
64030
64031.7
64037.2
64049.2
64073.8
64123.4
64223.6
64432.4
64888.7
65967.6
68776.4
75529.1
83138.3
250676
234070
219000
205286
192776
181335
170847
161213
152345
144166
136609
129617
123140
117133
111560
106390
101598
97161.6
93066.3
89299.1
85850.4
82712.3
79877.7
77339.1
75087.8
73113.2
71401.9
69937.9
68702.7
67675.7
66834.5
66156.3
65618.2
65198.2
64875.7
64632.3
64451.7
64319.8
64225.2
64158.5
64112.2
64080.6
64059.5
64045.7
64036.9
64031.6
64029.1
64029
64032
64039.9
64056.7
64090.8
64159.1
64299.5
64598.3
65272.3
66929.9
71229.5
79346.5
84029.4
250676
234070
219000
205286
192776
181335
170847
161213
152345
144166
136609
129617
123140
117133
111560
106390
101597
97161.4
93066
89298.8
85850.1
82711.9
79877.2
77338.6
75087.2
73112.5
71401.2
69937.1
68701.9
67674.9
66833.7
66155.4
65617.3
65197.3
64874.9
64631.5
64450.8
64319
64224.4
64157.7
64111.4
64079.9
64058.8
64045.1
64036.4
64031.4
64029.2
64030
64034.6
64045.7
64068.8
64115
64208.5
64403.8
64828.7
65820.4
68316.3
74351.7
82541.3
84030.6
250676
234070
219000
205286
192776
181335
170847
161213
152345
144166
136609
129617
123140
117133
111560
106390
101597
97161.4
93066
89298.8
85850
82711.8
79877.1
77338.4
75087.1
73112.3
71400.9
69936.9
68701.7
67674.6
66833.4
66155.2
65617.1
65197.1
64874.6
64631.2
64450.6
64318.7
64224.2
64157.5
64111.2
64079.7
64058.7
64045
64036.5
64031.7
64030.1
64031.9
64038.7
64053.8
64084.7
64146.6
64273.1
64541
65138.8
66586.1
70232.9
77771.4
84898
84301.2
250676
234070
219000
205286
192776
181335
170847
161213
152345
144166
136609
129617
123140
117133
111560
106390
101597
97161.3
93066
89298.7
85850
82711.8
79877.1
77338.4
75087
73112.3
71400.9
69936.9
68701.7
67674.6
66833.4
66155.1
65617
65197
64874.6
64631.2
64450.5
64318.7
64224.1
64157.4
64111.2
64079.7
64058.7
64045.1
64036.8
64032.3
64031.4
64034.6
64043.9
64064.1
64104.8
64186.7
64356.6
64723
65564.8
67662
72744.3
80937.9
85459.6
84860.6
250676
234070
219000
205286
192776
181335
170847
161213
152345
144166
136609
129617
123140
117133
111560
106390
101597
97161.3
93066
89298.7
85850
82711.8
79877
77338.4
75087
73112.3
71400.9
69936.8
68701.6
67674.5
66833.3
66155.1
65617
65197
64874.5
64631.1
64450.5
64318.7
64224.1
64157.4
64111.2
64079.8
64058.8
64045.3
64037.2
64033.2
64033.2
64038
64050.5
64076.8
64129.7
64237
64462.8
64959.8
66136.5
69103.5
75664.7
83489.6
85372.4
85022.4
250676
234070
219000
205286
192776
181335
170847
161213
152345
144166
136609
129617
123140
117133
111560
106390
101597
97161.3
93066
89298.7
85849.9
82711.8
79877
77338.4
75087
73112.3
71400.9
69936.8
68701.6
67674.5
66833.3
66155.1
65617
65197
64874.5
64631.1
64450.5
64318.7
64224.1
64157.4
64111.3
64079.8
64059
64045.6
64037.7
64034.3
64035.3
64042.1
64058.5
64092.2
64159.9
64299.2
64596.1
65264.7
66896.6
70963.1
78654.5
85361.3
85329.5
85038.2
250676
234070
219000
205286
192776
181335
170847
161213
152345
144166
136609
129617
123140
117133
111560
106390
101597
97161.3
93066
89298.7
85849.9
82711.8
79877
77338.4
75087
73112.3
71400.9
69936.8
68701.6
67674.5
66833.3
66155.1
65617
65197
64874.5
64631.2
64450.5
64318.7
64224.1
64157.5
64111.3
64079.9
64059.2
64045.9
64038.4
64035.6
64037.8
64047
64067.9
64110.4
64196.3
64375.4
64763.1
65657.7
67891.6
73223.3
81357.2
85930.5
85686.8
85090.2
250676
234070
219000
205286
192776
181335
170847
161213
152345
144166
136609
129617
123140
117133
111560
106390
101597
97161.3
93066
89298.7
85849.9
82711.8
79877
77338.4
75087
73112.3
71400.9
69936.8
68701.6
67674.5
66833.3
66155.1
65617
65197
64874.5
64631.2
64450.5
64318.7
64224.2
64157.5
64111.4
64080
64059.4
64046.3
64039.2
64037.1
64040.8
64052.7
64078.8
64131.7
64239.6
64467.1
64967.8
66153.2
69142.2
75729
83559.2
85882.9
85743.5
85255.2
250676
234070
219000
205286
192776
181335
170847
161213
152345
144166
136609
129617
123140
117133
111560
106390
101597
97161.3
93066
89298.7
85849.9
82711.8
79877
77338.4
75087
73112.3
71400.9
69936.8
68701.6
67674.5
66833.3
66155.1
65617
65197
64874.5
64631.2
64450.5
64318.7
64224.2
64157.6
64111.4
64080.2
64059.6
64046.8
64040.1
64038.9
64044.2
64059.3
64091.4
64156.4
64290.4
64575.8
65216
66769.7
70658.7
78240.4
85187.4
85737
85652.3
85254.7
250676
234070
219000
205286
192776
181335
170847
161213
152345
144166
136609
129617
123140
117133
111560
106390
101597
97161.3
93066
89298.7
85849.9
82711.8
79877
77338.4
75087
73112.3
71400.9
69936.8
68701.6
67674.5
66833.3
66155.1
65617
65197
64874.6
64631.2
64450.5
64318.7
64224.2
64157.6
64111.5
64080.3
64059.9
64047.3
64041.1
64040.8
64048
64066.6
64105.5
64184.5
64349.1
64703.6
65514.3
67523.1
72413.7
80545.2
86173.8
85780.6
85518.3
85124
250676
234070
219000
205286
192776
181335
170847
161213
152345
144166
136609
129617
123140
117133
111560
106390
101597
97161.3
93066
89298.7
85849.9
82711.8
79877
77338.4
75087
73112.3
71400.9
69936.8
68701.6
67674.5
66833.3
66155.1
65617
65197
64874.6
64631.2
64450.6
64318.8
64224.2
64157.6
64111.6
64080.5
64060.2
64047.9
64042.2
64043.1
64052.2
64074.6
64121.1
64215.9
64415.6
64850.9
65866
68414
74326.9
82510.6
86337.6
86049.7
85556.5
84893.5
250676
234070
219000
205286
192776
181335
170847
161213
152345
144166
136609
129617
123140
117133
111560
106390
101597
97161.3
93066
89298.7
85849.9
82711.8
79877
77338.4
75087
73112.3
71400.9
69936.8
68701.6
67674.5
66833.3
66155.1
65617
65197
64874.6
64631.2
64450.6
64318.8
64224.3
64157.7
64111.7
64080.6
64060.5
64048.5
64043.5
64045.4
64056.8
64083.3
64138.1
64250.8
64489.5
65016.6
66269.8
69428.9
76272.3
84096.8
86270.1
86071.4
85620.2
84774.9
250676
234070
219000
205286
192776
181335
170847
161213
152345
144166
136609
129617
123140
117133
111560
106390
101597
97161.3
93066
89298.7
85849.9
82711.8
79877
77338.4
75087
73112.3
71400.9
69936.8
68701.6
67674.5
66833.3
66155.1
65617
65197
64874.6
64631.2
64450.6
64318.8
64224.3
64157.7
64111.8
64080.8
64060.8
64049.2
64044.8
64048
64061.6
64092.5
64156.2
64288.3
64569.8
65200.2
66726.5
70548.7
78119.6
85296.9
86160.8
86008.2
85596.3
84753
250676
234070
219000
205286
192776
181335
170847
161213
152345
144166
136609
129617
123140
117133
111560
106390
101597
97161.3
93066
89298.7
85849.9
82711.8
79877
77338.4
75087
73112.3
71400.9
69936.8
68701.6
67674.5
66833.3
66155.1
65617
65197
64874.6
64631.2
64450.6
64318.8
64224.3
64157.8
64111.9
64081
64061.2
64049.9
64046.2
64050.6
64066.6
64102.1
64175.3
64327.9
64655.7
65399.6
67228.7
71734.7
79779.5
86130
86048.8
85901.5
85504.2
84788.5
250676
234070
219000
205286
192776
181335
170847
161213
152345
144166
136609
129617
123140
117133
111560
106390
101597
97161.3
93066
89298.7
85849.9
82711.8
79877
77338.4
75087
73112.3
71400.9
69936.8
68701.6
67674.5
66833.3
66155.1
65617
65197
64874.6
64631.2
64450.6
64318.8
64224.4
64157.9
64112
64081.2
64061.6
64050.7
64047.5
64053.3
64071.6
64111.8
64194.7
64368.8
64745.4
65610.9
67763.6
72937.5
81206.6
86615.7
86090.5
85763.3
85391.2
84792.4
250676
234070
219000
205286
192776
181335
170847
161213
152345
144166
136609
129617
123140
117133
111560
106390
101597
97161.3
93066
89298.7
85849.9
82711.8
79877
77338.4
75087
73112.3
71400.9
69936.8
68701.6
67674.5
66833.3
66155.1
65617
65197
64874.6
64631.2
64450.6
64318.9
64224.4
64157.9
64112.1
64081.4
64061.9
64051.4
64048.9
64055.9
64076.6
64121.5
64214.2
64409.9
64836.4
65828.4
68314.2
74111.2
82403
86748.3
86320.9
85682.7
85209
84772.6
250676
234070
219000
205286
192776
181335
170847
161213
152345
144166
136609
129617
123140
117133
111560
106390
101597
97161.3
93066
89298.7
85849.9
82711.8
79877
77338.4
75087
73112.3
71400.9
69936.8
68701.6
67674.5
66833.3
66155.1
65617
65197
64874.6
64631.2
64450.6
64318.9
64224.4
64158
64112.2
64081.6
64062.3
64052.1
64050.3
64058.4
64081.4
64130.8
64233.2
64449.9
64925.8
66044.8
68859.8
75206.9
83383.5
86776.1
86374.2
85746.8
85057.7
84738.8
250676
234070
219000
205286
192776
181335
170847
161213
152345
144166
136609
129617
123140
117133
111560
106390
101597
97161.3
93066
89298.7
85849.9
82711.8
79877
77338.4
75087
73112.3
71400.9
69936.8
68701.6
67674.5
66833.3
66155.1
65617
65197
64874.6
64631.2
64450.6
64318.9
64224.5
64158
64112.3
64081.7
64062.6
64052.7
64051.5
64060.7
64085.8
64139.4
64251
64487.9
65010.9
66252.3
69379.9
76183.8
84166
86747
86397.8
85786.7
84956.5
84702
250676
234070
219000
205286
192776
181335
170847
161213
152345
144166
136609
129617
123140
117133
111560
106390
101597
97161.3
93066
89298.7
85849.9
82711.8
79877
77338.4
75087
73112.3
71400.9
69936.8
68701.6
67674.5
66833.3
66155.1
65617
65197
64874.6
64631.2
64450.6
64318.9
64224.5
64158.1
64112.3
64081.9
64062.9
64053.3
64052.6
64062.8
64089.8
64147.2
64267.1
64522.1
65088.5
66443.9
69852.9
77014.8
84770.4
86704.5
86394.5
85806.4
84895.3
84668.7
250676
234070
219000
205286
192776
181335
170847
161213
152345
144166
136609
129617
123140
117133
111560
106390
101597
97161.3
93066
89298.7
85849.9
82711.8
79877
77338.4
75087
73112.3
71400.9
69936.8
68701.6
67674.5
66833.3
66155.1
65617
65197
64874.6
64631.2
64450.7
64318.9
64224.5
64158.1
64112.4
64082
64063.2
64053.8
64053.5
64064.6
64093.2
64153.9
64280.7
64551.3
65155.3
66609.9
70259
77685.4
85219.2
86663.4
86379.1
85812.1
84861.3
84643.1
250676
234070
219000
205286
192776
181335
170847
161213
152345
144166
136609
129617
123140
117133
111560
106390
101597
97161.3
93066
89298.7
85849.9
82711.8
79877
77338.4
75087
73112.3
71400.9
69936.8
68701.6
67674.5
66833.3
66155.1
65617
65197
64874.6
64631.3
64450.7
64318.9
64224.5
64158.1
64112.5
64082.1
64063.4
64054.2
64054.3
64066
64095.8
64159.1
64291.5
64574.4
65208.4
66742.6
70580.3
78189.9
85535.5
86631.4
86363
85811.8
84844.3
84626.7
250676
234070
219000
205286
192776
181335
170847
161213
152345
144166
136609
129617
123140
117133
111560
106390
101597
97161.3
93066
89298.7
85849.9
82711.8
79877
77338.4
75087
73112.3
71400.9
69936.8
68701.6
67674.5
66833.3
66155.1
65617
65197
64874.6
64631.3
64450.7
64318.9
64224.5
64158.1
64112.5
64082.2
64063.5
64054.4
64054.8
64066.9
64097.6
64162.6
64298.9
64590.5
65245.4
66835.3
70802.6
78525.8
85734
86608.8
86349.2
85807.7
84835.6
84615.6
250676
234070
219000
205286
192776
181335
170847
161213
152345
144166
136609
129617
123140
117133
111560
106390
101597
97161.3
93066
89298.7
85849.9
82711.8
79877
77338.4
75087
73112.3
71400.9
69936.8
68701.6
67674.5
66833.3
66155.1
65617
65197
64874.6
64631.3
64450.7
64318.9
64224.5
64158.1
64112.5
64082.2
64063.6
64054.6
64055
64067.4
64098.6
64164.5
64302.7
64598.5
65264
66881.9
70912.9
78687
85824.9
86598.7
86342.5
85805.1
84831.7
84610.3
250676
234070
219000
205286
192776
181335
170847
161213
152345
144166
136609
129617
123140
117133
111560
106390
101597
97161.3
93066
89298.7
85849.9
82711.8
79877
77338.4
75087
73112.3
71400.9
69936.8
68701.6
67674.5
66833.3
66155.1
65617
65197
64874.6
64631.3
64450.7
64318.9
64224.5
64158.1
64112.5
64082.2
64063.6
64054.6
64055
64067.4
64098.6
64164.5
64302.7
64598.5
65264
66881.8
70912.7
78686.6
85824.6
86598.7
86342.5
85805.1
84831.7
84610.1
250676
234070
219000
205286
192776
181335
170847
161213
152345
144166
136609
129617
123140
117133
111560
106390
101597
97161.3
93066
89298.7
85849.9
82711.8
79877
77338.4
75087
73112.3
71400.9
69936.8
68701.6
67674.5
66833.3
66155.1
65617
65197
64874.6
64631.3
64450.7
64318.9
64224.5
64158.1
64112.5
64082.2
64063.5
64054.4
64054.8
64067
64097.6
64162.6
64298.9
64590.4
65245.3
66835.1
70802
78524.8
85733.2
86608.8
86349.1
85807.7
84835.7
84615.4
250676
234070
219000
205286
192776
181335
170847
161213
152345
144166
136609
129617
123140
117133
111560
106390
101597
97161.3
93066
89298.7
85849.9
82711.8
79877
77338.4
75087
73112.3
71400.9
69936.8
68701.6
67674.5
66833.3
66155.1
65617
65197
64874.6
64631.3
64450.7
64318.9
64224.5
64158.1
64112.5
64082.1
64063.4
64054.2
64054.3
64066
64095.8
64159.1
64291.5
64574.4
65208.3
66742.3
70579.3
78188.3
85534.3
86631.8
86363.3
85812.1
84844.8
84626.8
250676
234070
219000
205286
192776
181335
170847
161213
152345
144166
136609
129617
123140
117133
111560
106390
101597
97161.3
93066
89298.7
85849.9
82711.8
79877
77338.4
75087
73112.3
71400.9
69936.8
68701.6
67674.5
66833.3
66155.1
65617
65197
64874.6
64631.2
64450.7
64318.9
64224.5
64158.1
64112.4
64082
64063.2
64053.8
64053.5
64064.6
64093.2
64153.9
64280.7
64551.2
65155.1
66609.4
70257.8
77683.4
85218.2
86664.4
86379.9
85812.9
84862.4
84643.9
250676
234070
219000
205286
192776
181335
170847
161213
152345
144166
136609
129617
123140
117133
111560
106390
101597
97161.3
93066
89298.7
85849.9
82711.8
79877
77338.4
75087
73112.3
71400.9
69936.8
68701.6
67674.5
66833.3
66155.1
65617
65197
64874.6
64631.2
64450.6
64318.9
64224.5
64158.1
64112.3
64081.9
64062.9
64053.3
64052.6
64062.9
64089.8
64147.2
64267.1
64522
65088.3
66443.3
69851.5
77012.7
84770
86706.5
86396.3
85808.1
84897.4
84670.8
250676
234070
219000
205286
192776
181335
170847
161213
152345
144166
136609
129617
123140
117133
111560
106390
101597
97161.3
93066
89298.7
85849.9
82711.8
79877
77338.4
75087
73112.3
71400.9
69936.8
68701.6
67674.5
66833.3
66155.1
65617
65197
64874.6
64631.2
64450.6
64318.9
64224.5
64158
64112.3
64081.7
64062.6
64052.7
64051.5
64060.8
64085.9
64139.4
64251
64487.8
65010.7
66251.8
69378.4
76181.7
84166.1
86750.1
86400.7
85789.5
84960
84705.9
250676
234070
219000
205286
192776
181335
170847
161213
152345
144166
136609
129617
123140
117133
111560
106390
101597
97161.3
93066
89298.7
85849.9
82711.8
79877
77338.4
75087
73112.3
71400.9
69936.8
68701.6
67674.5
66833.3
66155.1
65617
65197
64874.6
64631.2
64450.6
64318.9
64224.4
64158
64112.2
64081.6
64062.3
64052.1
64050.3
64058.4
64081.4
64130.8
64233.2
64449.9
64925.6
66044.3
68858.5
75204.8
83383.9
86779.9
86377.9
85750.5
85062.1
84743.9
250676
234070
219000
205286
192776
181335
170847
161213
152345
144166
136609
129617
123140
117133
111560
106390
101597
97161.3
93066
89298.7
85849.9
82711.8
79877
77338.4
75087
73112.3
71400.9
69936.8
68701.6
67674.5
66833.3
66155.1
65617
65197
64874.6
64631.2
64450.6
64318.9
64224.4
64157.9
64112.1
64081.4
64061.9
64051.4
64048.9
64055.9
64076.6
64121.5
64214.2
64409.9
64836.3
65828
68313.1
74109.3
82403.2
86752
86324.5
85686.4
85213.4
84777.4
250676
234070
219000
205286
192776
181335
170847
161213
152345
144166
136609
129617
123140
117133
111560
106390
101597
97161.3
93066
89298.7
85849.9
82711.8
79877
77338.4
75087
73112.3
71400.9
69936.8
68701.6
67674.5
66833.3
66155.1
65617
65197
64874.6
64631.2
64450.6
64318.8
64224.4
64157.9
64112
64081.2
64061.6
64050.7
64047.6
64053.3
64071.6
64111.8
64194.7
64368.8
64745.3
65610.6
67762.9
72936
81206.3
86618.3
86093
85766.2
85394.4
84795.5
250676
234070
219000
205286
192776
181335
170847
161213
152345
144166
136609
129617
123140
117133
111560
106390
101597
97161.3
93066
89298.7
85849.9
82711.8
79877
77338.4
75087
73112.3
71400.9
69936.8
68701.6
67674.5
66833.3
66155.1
65617
65197
64874.6
64631.2
64450.6
64318.8
64224.3
64157.8
64111.9
64081
64061.2
64049.9
64046.2
64050.6
64066.6
64102.1
64175.3
64327.9
64655.7
65399.5
67228.4
71733.9
79778.8
86130.7
86050
85902.7
85505.5
84789.2
250676
234070
219000
205286
192776
181335
170847
161213
152345
144166
136609
129617
123140
117133
111560
106390
101597
97161.3
93066
89298.7
85849.9
82711.8
79877
77338.4
75087
73112.3
71400.9
69936.8
68701.6
67674.5
66833.3
66155.1
65617
65197
64874.6
64631.2
64450.6
64318.8
64224.3
64157.7
64111.8
64080.8
64060.8
64049.2
64044.8
64048
64061.6
64092.6
64156.3
64288.4
64569.9
65200.3
66726.5
70548.6
78119.1
85296.2
86160.4
86007.6
85595.6
84751.7
250676
234070
219000
205286
192776
181335
170847
161213
152345
144166
136609
129617
123140
117133
111560
106390
101597
97161.3
93066
89298.7
85849.9
82711.8
79877
77338.4
75087
73112.3
71400.9
69936.8
68701.6
67674.5
66833.3
66155.1
65617
65197
64874.6
64631.2
64450.6
64318.8
64224.3
64157.7
64111.7
64080.6
64060.5
64048.5
64043.5
64045.4
64056.8
64083.3
64138.1
64250.9
64489.5
65016.7
66270
69429.3
76272.5
84095.7
86268.3
86069.4
85618.1
84772.3
250676
234070
219000
205286
192776
181335
170847
161213
152345
144166
136609
129617
123140
117133
111560
106390
101597
97161.3
93066
89298.7
85849.9
82711.8
79877
77338.4
75087
73112.3
71400.9
69936.8
68701.6
67674.5
66833.3
66155.1
65617
65197
64874.6
64631.2
64450.5
64318.8
64224.2
64157.6
64111.6
64080.5
64060.2
64047.9
64042.2
64043.1
64052.2
64074.6
64121.1
64216
64415.7
64851
65866.3
68414.7
74327.8
82509.8
86334.7
86046.8
85553.5
84890.1
250676
234070
219000
205286
192776
181335
170847
161213
152345
144166
136609
129617
123140
117133
111560
106390
101597
97161.3
93066
89298.7
85849.9
82711.8
79877
77338.4
75087
73112.3
71400.9
69936.8
68701.6
67674.5
66833.3
66155.1
65617
65197
64874.5
64631.2
64450.5
64318.7
64224.2
64157.6
64111.5
64080.3
64059.9
64047.3
64041.1
64040.8
64048
64066.6
64105.5
64184.5
64349.2
64703.7
65514.6
67523.9
72415.3
80545.3
86170.3
85777.3
85514.7
85120.2
250676
234070
219000
205286
192776
181335
170847
161213
152345
144166
136609
129617
123140
117133
111560
106390
101597
97161.3
93066
89298.7
85849.9
82711.8
79877
77338.4
75087
73112.3
71400.9
69936.8
68701.6
67674.5
66833.3
66155.1
65617
65197
64874.5
64631.2
64450.5
64318.7
64224.2
64157.5
64111.4
64080.2
64059.6
64046.8
64040.1
64038.9
64044.2
64059.3
64091.4
64156.4
64290.5
64576
65216.3
66770.4
70660.4
78241.6
85184.9
85733.4
85648.8
85251.3
250676
234070
219000
205286
192776
181335
170847
161213
152345
144166
136609
129617
123140
117133
111560
106390
101597
97161.3
93066
89298.7
85849.9
82711.8
79877
77338.4
75087
73112.3
71400.9
69936.8
68701.6
67674.5
66833.3
66155.1
65617
65197
64874.5
64631.2
64450.5
64318.7
64224.2
64157.5
64111.3
64080
64059.3
64046.3
64039.2
64037.1
64040.8
64052.7
64078.9
64131.8
64239.6
64467.2
64968
66153.7
69143.7
75731
83558.3
85879.4
85740.6
85252.6
250676
234070
219000
205286
192776
181335
170847
161213
152345
144166
136609
129617
123140
117133
111560
106390
101597
97161.3
93066
89298.7
85849.9
82711.8
79877
77338.4
75087
73112.3
71400.9
69936.8
68701.6
67674.5
66833.3
66155.1
65617
65197
64874.5
64631.1
64450.5
64318.7
64224.1
64157.5
64111.3
64079.9
64059.1
64045.9
64038.4
64035.6
64037.8
64047
64067.9
64110.4
64196.3
64375.5
64763.2
65658
67892.5
73225.1
81358
85927.9
85684.8
85089
250676
234070
219000
205286
192776
181335
170847
161213
152345
144166
136609
129617
123140
117133
111560
106390
101597
97161.3
93066
89298.7
85849.9
82711.8
79877
77338.4
75087
73112.3
71400.9
69936.8
68701.6
67674.5
66833.3
66155.1
65617
65197
64874.5
64631.1
64450.5
64318.7
64224.1
64157.4
64111.2
64079.8
64059
64045.6
64037.7
64034.3
64035.3
64042.1
64058.4
64092.2
64159.9
64299.2
64596.1
65264.9
66897
70964.2
78655.7
85360.7
85328.3
85037.8
250676
234070
219000
205286
192776
181335
170847
161213
152345
144166
136609
129617
123140
117133
111560
106390
101597
97161.3
93066
89298.7
85850
82711.8
79877
77338.4
75087
73112.3
71400.9
69936.8
68701.6
67674.5
66833.3
66155.1
65617
65197
64874.5
64631.1
64450.5
64318.7
64224.1
64157.4
64111.2
64079.8
64058.8
64045.3
64037.2
64033.2
64033.1
64038
64050.5
64076.8
64129.7
64237
64462.9
64959.9
66136.8
69104.1
75665.8
83490
85371.6
85022.9
250676
234070
219000
205286
192776
181335
170847
161213
152345
144166
136609
129617
123140
117133
111560
106390
101597
97161.3
93066
89298.7
85850
82711.8
79877.1
77338.4
75087
73112.3
71400.9
69936.9
68701.7
67674.6
66833.4
66155.1
65617
65197
64874.6
64631.2
64450.5
64318.7
64224.1
64157.4
64111.2
64079.7
64058.7
64045.1
64036.7
64032.3
64031.4
64034.6
64043.9
64064.1
64104.8
64186.7
64356.6
64723
65564.8
67662.1
72744.5
80938.3
85459.5
84862.2
250676
234070
219000
205286
192776
181335
170847
161213
152345
144166
136609
129617
123140
117133
111560
106390
101597
97161.4
93066
89298.8
85850
82711.8
79877.1
77338.4
75087.1
73112.3
71400.9
69936.9
68701.7
67674.6
66833.4
66155.2
65617.1
65197
64874.6
64631.2
64450.6
64318.7
64224.2
64157.5
64111.2
64079.7
64058.7
64045
64036.4
64031.7
64030.1
64031.9
64038.6
64053.8
64084.7
64146.6
64273.1
64540.9
65138.8
66586
70232.6
77771.2
84898.3
84303.5
250676
234070
219000
205286
192776
181335
170847
161213
152345
144166
136609
129617
123140
117133
111560
106390
101597
97161.4
93066
89298.8
85850.1
82711.9
79877.2
77338.6
75087.2
73112.5
71401.1
69937.1
68701.9
67674.8
66833.7
66155.4
65617.3
65197.3
64874.8
64631.4
64450.8
64319
64224.4
64157.7
64111.4
64079.9
64058.8
64045
64036.4
64031.3
64029.2
64030
64034.6
64045.7
64068.8
64115
64208.5
64403.8
64828.6
65820.1
68315.6
74350.7
82541.3
84033.2
250676
234070
219000
205286
192776
181335
170847
161213
152345
144166
136609
129617
123140
117133
111560
106390
101598
97161.6
93066.3
89299.1
85850.4
82712.3
79877.7
77339.1
75087.8
73113.2
71401.8
69937.9
68702.7
67675.6
66834.4
66156.2
65618.1
65198.1
64875.6
64632.2
64451.5
64319.7
64225.1
64158.4
64112.1
64080.5
64059.4
64045.6
64036.8
64031.6
64029.1
64029
64032.1
64040
64056.8
64090.9
64159.2
64299.6
64598.3
65272
66929
71227.7
79345.5
84032.7
250676
234070
219000
205286
192776
181335
170847
161213
152345
144166
136609
129618
123140
117133
111561
106391
101598
97162.2
93067.1
89300.1
85851.6
82713.7
79879.3
77340.9
75089.8
73115.3
71404.1
69940.2
68705.1
67678.1
66837
66158.8
65620.6
65200.6
64878.1
64634.6
64453.9
64322
64227.4
64160.6
64114.3
64082.7
64061.6
64047.7
64038.8
64033.4
64030.6
64030
64031.8
64037.3
64049.4
64074.1
64123.7
64224
64432.6
64888.7
65967.1
68774.6
75526.7
83142.3
250676
234070
219000
205286
192776
181335
170847
161213
152345
144166
136609
129618
123141
117134
111562
106392
101600
97164.4
93069.7
89303.3
85855.3
82718
79884.2
77346.4
75095.8
73121.8
71411
69947.5
68712.7
67685.8
66844.7
66166.5
65628.3
65208.2
64885.6
64642
64461.1
64329.1
64234.3
64167.4
64121
64089.3
64068.1
64054.2
64045.2
64039.8
64036.8
64035.8
64036.8
64040.6
64049.1
64066.6
64102
64173.3
64319.7
64631.1
65336
67105.2
71820.9
79985.5
250676
234070
219000
205286
192776
181335
170847
161213
152345
144166
136610
129619
123142
117136
111565
106396
101605
97171
93077.8
89313
85866.7
82731.1
79898.9
77362.7
75113.7
73141
71431.3
69968.7
68734.5
67708
66867.1
66188.9
65650.5
65230.1
64907.2
64663.2
64482
64349.6
64254.4
64187.2
64140.4
64108.5
64087.1
64073
64064
64058.6
64055.6
64054.5
64055.1
64057.8
64063.9
64076.2
64100.7
64150.1
64250.7
64460.5
64918.1
66012.8
68958.4
75958.8
250676
234070
219000
205286
192776
181335
170847
161214
152346
144168
136613
129622
123147
117143
111574
106408
101621
97190.3
93101.2
89340.6
85898.8
82767.7
79940
77408
75162.9
73193.6
71486.8
70026.5
68793.9
67768.5
66928
66249.8
65711
65290
64966.2
64721.3
64539.1
64405.7
64309.6
64241.4
64193.9
64161.2
64139.2
64124.8
64115.7
64110.4
64107.6
64106.9
64107.7
64110.1
64114.9
64123.7
64140.4
64173.4
64239.7
64376.2
64666.3
65327.9
67047.1
71867.6
250676
234070
219000
205286
192776
181335
170848
161215
152348
144172
136619
129632
123161
117163
111600
106442
101663
97242.4
93163.6
89413.8
85983.1
82863
80046.1
77524.3
75288.6
73327.8
71628.2
70173.5
68945.2
67922.5
67083.4
66405.4
65866
65443.6
65118.1
64871.2
64686.8
64551.2
64452.9
64382.7
64333.2
64298.8
64275.5
64260.1
64250.5
64245.2
64243
64243.1
64245
64248.3
64253
64260.2
64272
64293.6
64335.8
64421.7
64601.2
64995.9
65966.3
68809.9
250676
234070
219000
205287
192777
181336
170850
161219
152355
144183
136636
129658
123198
117213
111667
106527
101769
97371
93316
89590.9
86185.1
83089.8
80297.1
77798.4
75584.2
73642.7
71960
70519.2
69301.7
68286.6
67452.1
66776.1
66236.6
65812.6
65484.3
65234
65045.9
64906.4
64804
64729.6
64675.9
64637.7
64611
64593
64581.6
64575.7
64573.9
64575.4
64579.4
64584.9
64591.4
64598.9
64608.2
64622.3
64647.9
64699.4
64807.1
65040.4
65588.4
67154.3
250676
234070
219000
205287
192778
181339
170855
161228
152371
144209
136677
129718
123283
117329
111818
106720
102007
97656.3
93651
89976.6
86621.6
83576.6
80833.1
78382.1
76213
74313.6
72668.6
71260.5
70069.9
69075.6
68255.9
67589.2
67054.4
66631.6
66302
66048.8
65856.6
65712
65603.8
65522.9
65462.3
65416.7
65382.7
65358.1
65341.5
65332.1
65329
65331.5
65338.1
65347.5
65357.8
65367.8
65377
65386.7
65400.9
65428.6
65489.2
65624.5
65939.3
66799.4