/*--------------------------------*- C++ -*----------------------------------*\
  =========                 |
  \\      /  F ield         | OpenFOAM: The Open Source CFD Toolbox
   \\    /   O peration     | Website:  https://openfoam.org
    \\  /    A nd           | Version:  9
     \\/     M anipulation  |
\*---------------------------------------------------------------------------*/
FoamFile
{
    format      ascii;
    class       volScalarField;
    location    "0.004";
    object      k;
}
// * * * * * * * * * * * * * * * * * * * * * * * * * * * * * * * * * * * * * //

dimensions      [0 2 -2 0 0 0 0];

internalField   nonuniform List<scalar> 
36400
(
969.269
934.546
902.051
871.591
843.005
816.155
790.929
767.237
745.009
724.189
704.732
686.594
669.731
654.093
639.626
626.269
613.96
602.634
592.232
582.702
574.002
566.104
558.992
552.662
547.118
542.364
538.394
535.187
532.694
530.836
529.511
528.591
527.943
527.431
526.938
526.366
525.654
524.777
523.75
522.63
521.506
520.493
519.717
519.294
519.317
519.838
520.861
522.342
524.2
526.325
528.601
530.912
533.157
535.253
537.145
538.818
540.291
541.609
542.733
543.096
969.269
934.545
902.048
871.585
842.99
816.124
790.871
767.135
744.841
723.928
704.343
686.041
668.975
653.097
638.357
624.699
612.068
600.41
589.672
579.811
570.792
562.588
555.185
548.576
542.76
537.734
533.486
529.99
527.196
525.031
523.398
522.185
521.269
520.531
519.861
519.173
518.406
517.531
516.556
515.52
514.493
513.565
512.836
512.399
512.327
512.661
513.405
514.521
515.944
517.586
519.352
521.15
522.894
524.52
525.983
527.272
528.409
529.444
530.401
531.009
969.269
934.544
902.044
871.574
842.967
816.077
790.782
766.98
744.585
723.527
703.745
685.188
667.807
651.555
636.385
622.252
609.113
596.925
585.651
575.26
565.726
557.031
549.161
542.107
535.862
530.414
525.743
521.816
518.583
515.975
513.908
512.285
511.002
509.958
509.06
508.231
507.413
506.573
505.704
504.823
503.971
503.203
502.581
502.165
502.002
502.117
502.511
503.159
504.017
505.025
506.12
507.238
508.323
509.332
510.236
511.034
511.752
512.457
513.252
514.246
969.268
934.543
902.04
871.564
842.944
816.031
790.696
766.829
744.335
723.134
703.158
684.349
666.652
650.023
634.418
619.802
606.14
593.404
581.572
570.626
560.55
551.335
542.973
535.454
528.766
522.893
517.808
513.471
509.833
506.828
504.382
502.408
500.821
499.533
498.466
497.548
496.726
495.961
495.232
494.538
493.891
493.316
492.842
492.5
492.312
492.292
492.437
492.733
493.153
493.663
494.225
494.803
495.365
495.888
496.361
496.793
497.222
497.739
498.537
500.099
969.268
934.542
902.037
871.557
842.928
815.997
790.632
766.716
744.148
722.84
702.716
683.713
665.773
648.85
632.905
617.906
603.827
590.65
578.364
566.961
556.437
546.791
538.019
530.115
523.068
516.856
511.45
506.808
502.88
499.601
496.902
494.705
492.932
491.506
490.353
489.41
488.622
487.947
487.355
486.831
486.368
485.968
485.64
485.393
485.235
485.17
485.194
485.299
485.47
485.689
485.937
486.196
486.452
486.696
486.932
487.184
487.512
488.049
489.111
491.659
969.268
934.541
902.035
871.552
842.918
815.977
790.593
766.647
744.033
722.658
702.442
683.316
665.222
648.111
631.944
616.693
602.337
588.865
576.27
564.554
553.721
543.774
534.716
526.544
519.247
512.805
507.188
502.353
498.247
494.81
491.971
489.657
487.793
486.306
485.126
484.192
483.448
482.85
482.364
481.964
481.632
481.36
481.143
480.978
480.866
480.803
480.787
480.812
480.87
480.953
481.052
481.159
481.273
481.396
481.546
481.767
482.155
482.923
484.608
489.055
969.268
934.541
902.034
871.55
842.912
815.966
790.573
766.612
743.973
722.562
702.297
683.105
664.926
647.711
631.421
616.028
601.514
587.869
575.094
563.193
552.174
542.045
532.813
524.477
517.029
510.449
504.708
499.763
495.562
492.041
489.134
486.766
484.864
483.357
482.175
481.257
480.549
480.003
479.583
479.258
479.006
478.812
478.664
478.554
478.477
478.43
478.407
478.406
478.422
478.451
478.491
478.541
478.606
478.7
478.858
479.153
479.74
480.981
483.856
491.944
969.268
934.541
902.034
871.549
842.91
815.961
790.564
766.595
743.945
722.518
702.23
683.006
664.787
647.521
631.17
615.706
601.112
587.38
574.511
562.513
551.395
541.169
531.843
523.418
515.887
509.233
503.426
498.424
494.174
490.613
487.674
485.284
483.368
481.855
480.677
479.772
479.085
478.569
478.184
477.899
477.689
477.535
477.423
477.344
477.289
477.254
477.234
477.227
477.23
477.242
477.264
477.3
477.364
477.48
477.706
478.161
479.105
481.172
486.228
500.792
969.268
934.541
902.034
871.549
842.909
815.959
790.56
766.589
743.934
722.5
702.202
682.965
664.728
647.44
631.062
615.567
600.936
587.164
574.251
562.207
551.042
540.769
531.397
522.928
515.357
508.667
502.827
497.797
493.523
489.945
486.992
484.592
482.671
481.157
479.983
479.085
478.409
477.907
477.539
477.272
477.081
476.946
476.851
476.786
476.742
476.714
476.698
476.69
476.691
476.7
476.722
476.766
476.853
477.024
477.371
478.084
479.599
483.051
491.952
516.262
969.268
934.541
902.034
871.548
842.909
815.959
790.559
766.586
743.93
722.493
702.191
682.949
664.705
647.409
631.02
615.511
600.866
587.077
574.146
562.082
550.896
540.602
531.21
522.721
515.132
508.425
502.57
497.528
493.244
489.657
486.698
484.294
482.372
480.858
479.685
478.791
478.119
477.623
477.262
477.003
476.82
476.693
476.606
476.547
476.508
476.483
476.469
476.463
476.465
476.478
476.509
476.571
476.699
476.956
477.48
478.574
480.959
486.649
501.742
536.39
969.268
934.541
902.034
871.548
842.909
815.958
790.559
766.585
743.929
722.491
702.187
682.944
664.697
647.397
631.005
615.491
600.84
587.044
574.106
562.034
550.84
540.538
531.137
522.641
515.044
508.329
502.469
497.421
493.133
489.543
486.581
484.176
482.252
480.739
479.567
478.673
478.004
477.51
477.152
476.896
476.716
476.592
476.507
476.45
476.414
476.391
476.378
476.374
476.38
476.4
476.444
476.535
476.719
477.09
477.853
479.477
483.146
492.293
516.127
555.729
969.268
934.541
902.034
871.548
842.909
815.958
790.558
766.585
743.928
722.49
702.186
682.942
664.695
647.394
631
615.484
600.831
587.033
574.092
562.017
550.821
540.515
531.111
522.611
515.011
508.294
502.431
497.381
493.091
489.5
486.537
484.131
482.208
480.694
479.522
478.63
477.961
477.468
477.11
476.856
476.677
476.554
476.47
476.414
476.379
476.357
476.346
476.345
476.355
476.384
476.447
476.576
476.834
477.357
478.445
480.822
486.423
500.821
534.372
570.623
969.268
934.541
902.034
871.548
842.909
815.958
790.558
766.585
743.928
722.49
702.186
682.941
664.694
647.393
630.998
615.482
600.828
587.029
574.088
562.012
550.814
540.507
531.102
522.601
515
508.282
502.418
497.367
493.077
489.485
486.522
484.116
482.192
480.678
479.507
478.614
477.945
477.453
477.096
476.841
476.663
476.54
476.457
476.402
476.367
476.346
476.337
476.339
476.356
476.398
476.486
476.664
477.02
477.752
479.309
482.816
491.385
513.171
552.786
574.772
969.268
934.541
902.034
871.548
842.909
815.958
790.558
766.585
743.928
722.49
702.186
682.941
664.694
647.392
630.997
615.481
600.827
587.028
574.086
562.01
550.812
540.505
531.099
522.598
514.997
508.278
502.414
497.363
493.072
489.48
486.517
484.111
482.187
480.673
479.501
478.609
477.94
477.448
477.091
476.837
476.658
476.536
476.453
476.398
476.364
476.344
476.337
476.343
476.369
476.427
476.548
476.789
477.277
478.295
480.509
485.658
498.477
528.63
567.928
574.853
969.268
934.541
902.034
871.548
842.909
815.958
790.558
766.585
743.928
722.49
702.186
682.941
664.693
647.392
630.997
615.481
600.827
587.028
574.086
562.009
550.811
540.504
531.098
522.597
514.995
508.277
502.413
497.362
493.071
489.478
486.516
484.109
482.185
480.672
479.5
478.607
477.939
477.446
477.09
476.835
476.657
476.535
476.452
476.398
476.364
476.346
476.341
476.353
476.389
476.469
476.631
476.954
477.614
479.01
482.122
489.613
508.174
545.267
578.97
576.233
969.268
934.541
902.034
871.548
842.909
815.958
790.558
766.585
743.928
722.49
702.186
682.941
664.693
647.392
630.997
615.481
600.827
587.028
574.086
562.009
550.811
540.504
531.098
522.597
514.995
508.277
502.412
497.361
493.07
489.478
486.515
484.109
482.185
480.671
479.499
478.607
477.938
477.446
477.089
476.835
476.657
476.534
476.452
476.398
476.365
476.349
476.348
476.367
476.417
476.523
476.736
477.163
478.049
479.959
484.334
495.133
520.708
560.421
581.575
578.94
969.268
934.541
902.034
871.548
842.909
815.958
790.558
766.585
743.928
722.49
702.186
682.941
664.693
647.392
630.997
615.481
600.827
587.028
574.086
562.009
550.811
540.504
531.098
522.597
514.995
508.277
502.412
497.361
493.07
489.478
486.515
484.109
482.185
480.671
479.499
478.607
477.938
477.446
477.089
476.835
476.657
476.535
476.452
476.399
476.367
476.353
476.357
476.384
476.451
476.589
476.865
477.425
478.603
481.191
487.293
502.468
535.065
572.475
581.224
579.745
969.268
934.541
902.034
871.548
842.909
815.958
790.558
766.585
743.928
722.49
702.186
682.941
664.693
647.392
630.997
615.481
600.827
587.028
574.086
562.009
550.811
540.504
531.098
522.597
514.995
508.276
502.412
497.361
493.07
489.478
486.515
484.109
482.185
480.671
479.499
478.607
477.938
477.446
477.089
476.835
476.657
476.535
476.453
476.401
476.37
476.359
476.368
476.406
476.493
476.669
477.023
477.749
479.297
482.776
491.209
511.832
549.541
581.241
581.11
579.868
969.268
934.541
902.034
871.548
842.909
815.958
790.558
766.585
743.928
722.49
702.186
682.941
664.693
647.392
630.997
615.481
600.827
587.028
574.086
562.009
550.811
540.504
531.098
522.597
514.995
508.276
502.412
497.361
493.07
489.478
486.515
484.109
482.185
480.671
479.499
478.607
477.938
477.446
477.089
476.835
476.657
476.535
476.454
476.402
476.374
476.366
476.381
476.431
476.542
476.764
477.212
478.147
480.167
484.815
496.304
523.076
562.449
583.887
582.866
580.175
969.268
934.541
902.034
871.548
842.909
815.958
790.558
766.585
743.928
722.49
702.186
682.941
664.693
647.392
630.997
615.481
600.827
587.028
574.086
562.009
550.811
540.504
531.098
522.597
514.995
508.276
502.412
497.361
493.07
489.478
486.515
484.109
482.185
480.671
479.499
478.607
477.938
477.446
477.089
476.835
476.658
476.536
476.455
476.404
476.378
476.374
476.397
476.461
476.599
476.875
477.438
478.625
481.232
487.378
502.662
535.379
572.851
583.702
583.184
581.009
969.268
934.541
902.034
871.548
842.909
815.958
790.558
766.585
743.928
722.49
702.186
682.941
664.693
647.392
630.997
615.481
600.827
587.028
574.086
562.009
550.811
540.504
531.098
522.597
514.995
508.276
502.412
497.361
493.07
489.478
486.515
484.109
482.185
480.671
479.499
478.607
477.938
477.446
477.089
476.835
476.658
476.537
476.456
476.407
476.382
476.383
476.414
476.495
476.664
477.004
477.704
479.192
482.523
490.555
510.303
547.553
580.485
583.081
582.806
581.061
969.268
934.541
902.034
871.548
842.909
815.958
790.558
766.585
743.928
722.49
702.186
682.941
664.693
647.392
630.997
615.481
600.827
587.028
574.086
562.009
550.811
540.504
531.098
522.597
514.995
508.276
502.412
497.361
493.07
489.478
486.515
484.109
482.185
480.671
479.499
478.607
477.938
477.446
477.09
476.836
476.658
476.537
476.458
476.41
476.388
476.393
476.434
476.533
476.738
477.151
478.009
479.857
484.071
494.42
519.062
558.598
585.085
583.356
582.23
580.497
969.268
934.541
902.034
871.548
842.909
815.958
790.558
766.585
743.928
722.49
702.186
682.941
664.693
647.392
630.997
615.481
600.827
587.028
574.086
562.009
550.811
540.504
531.098
522.597
514.995
508.276
502.412
497.361
493.07
489.478
486.515
484.109
482.185
480.671
479.499
478.607
477.939
477.446
477.09
476.836
476.659
476.538
476.459
476.413
476.394
476.405
476.456
476.575
476.819
477.315
478.356
480.624
485.893
498.964
528.513
567.926
585.854
584.669
582.471
579.465
969.268
934.541
902.034
871.548
842.909
815.958
790.558
766.585
743.928
722.49
702.186
682.941
664.693
647.392
630.997
615.481
600.827
587.028
574.086
562.009
550.811
540.504
531.098
522.597
514.995
508.276
502.412
497.361
493.07
489.478
486.515
484.109
482.185
480.671
479.499
478.607
477.939
477.446
477.09
476.836
476.659
476.539
476.461
476.416
476.4
476.417
476.48
476.621
476.908
477.497
478.741
481.486
487.979
504.11
538.025
575.398
585.57
584.81
582.819
578.964
969.268
934.541
902.034
871.548
842.909
815.958
790.558
766.585
743.928
722.49
702.186
682.941
664.693
647.392
630.997
615.481
600.827
587.028
574.086
562.009
550.811
540.504
531.098
522.597
514.995
508.276
502.412
497.361
493.07
489.478
486.515
484.109
482.185
480.671
479.499
478.607
477.939
477.446
477.09
476.836
476.66
476.54
476.463
476.419
476.407
476.43
476.505
476.669
477.002
477.692
479.16
482.44
490.332
509.749
546.972
581.021
585.101
584.55
582.748
578.915
969.268
934.541
902.034
871.548
842.909
815.958
790.558
766.585
743.928
722.49
702.186
682.941
664.693
647.392
630.997
615.481
600.827
587.028
574.086
562.009
550.811
540.504
531.098
522.597
514.995
508.276
502.412
497.361
493.07
489.478
486.515
484.109
482.185
480.671
479.499
478.607
477.939
477.447
477.09
476.837
476.66
476.541
476.465
476.423
476.414
476.444
476.531
476.719
477.102
477.899
479.607
483.475
492.911
515.682
554.945
584.912
584.622
584.083
582.354
579.131
969.268
934.541
902.034
871.548
842.909
815.958
790.558
766.585
743.928
722.49
702.186
682.941
664.693
647.392
630.997
615.481
600.827
587.028
574.086
562.009
550.811
540.504
531.098
522.597
514.995
508.276
502.412
497.361
493.07
489.478
486.515
484.109
482.185
480.671
479.499
478.607
477.939
477.447
477.09
476.837
476.661
476.542
476.467
476.427
476.421
476.458
476.558
476.769
477.203
478.112
480.074
484.571
495.647
521.657
561.753
587.175
584.863
583.467
581.857
579.192
969.268
934.541
902.034
871.548
842.909
815.958
790.558
766.585
743.928
722.49
702.186
682.941
664.693
647.392
630.997
615.481
600.827
587.028
574.086
562.009
550.811
540.504
531.098
522.597
514.995
508.276
502.412
497.361
493.07
489.478
486.515
484.109
482.185
480.671
479.499
478.607
477.939
477.447
477.091
476.837
476.661
476.543
476.469
476.431
476.429
476.471
476.583
476.82
477.305
478.326
480.548
485.697
498.454
527.451
567.427
587.796
585.978
583.123
581.031
579.135
969.268
934.541
902.034
871.548
842.909
815.958
790.558
766.585
743.928
722.49
702.186
682.941
664.693
647.392
630.997
615.481
600.827
587.028
574.086
562.009
550.811
540.504
531.098
522.597
514.995
508.276
502.412
497.361
493.07
489.478
486.515
484.109
482.185
480.671
479.499
478.607
477.939
477.447
477.091
476.838
476.662
476.544
476.47
476.434
476.436
476.485
476.608
476.868
477.404
478.535
481.013
486.816
501.226
532.827
572.056
587.937
586.251
583.455
580.349
579.006
969.268
934.541
902.034
871.548
842.909
815.958
790.558
766.585
743.928
722.49
702.186
682.941
664.693
647.392
630.997
615.481
600.827
587.028
574.086
562.009
550.811
540.504
531.098
522.597
514.995
508.276
502.412
497.361
493.07
489.478
486.515
484.109
482.185
480.671
479.499
478.607
477.939
477.447
477.091
476.838
476.662
476.545
476.472
476.438
476.442
476.497
476.632
476.913
477.497
478.732
481.456
487.888
503.859
537.595
575.738
587.817
586.381
583.667
579.9
578.859
969.268
934.541
902.034
871.548
842.909
815.958
790.558
766.585
743.928
722.49
702.186
682.941
664.693
647.392
630.997
615.481
600.827
587.028
574.086
562.009
550.811
540.504
531.098
522.597
514.995
508.276
502.412
497.361
493.07
489.478
486.515
484.109
482.185
480.671
479.499
478.607
477.939
477.447
477.091
476.838
476.663
476.546
476.474
476.441
476.448
476.508
476.652
476.954
477.58
478.91
481.859
488.876
506.247
541.633
578.575
587.634
586.382
583.779
579.636
578.725
969.268
934.541
902.034
871.548
842.909
815.958
790.558
766.585
743.928
722.49
702.186
682.941
664.693
647.392
630.997
615.481
600.827
587.028
574.086
562.009
550.811
540.504
531.098
522.597
514.995
508.276
502.412
497.361
493.07
489.478
486.515
484.109
482.185
480.671
479.499
478.607
477.939
477.447
477.091
476.838
476.663
476.546
476.475
476.443
476.453
476.517
476.67
476.989
477.652
479.063
482.206
489.731
508.291
544.879
580.676
587.457
586.322
583.82
579.495
578.622
969.268
934.541
902.034
871.548
842.909
815.958
790.558
766.585
743.928
722.49
702.186
682.941
664.693
647.392
630.997
615.481
600.827
587.028
574.086
562.009
550.811
540.504
531.098
522.597
514.995
508.276
502.412
497.361
493.07
489.478
486.515
484.109
482.185
480.671
479.499
478.607
477.939
477.447
477.091
476.838
476.663
476.547
476.476
476.445
476.457
476.524
476.684
477.016
477.708
479.183
482.482
490.414
509.905
547.315
582.156
587.319
586.256
583.829
579.43
578.558
969.268
934.541
902.034
871.548
842.909
815.958
790.558
766.585
743.928
722.49
702.186
682.941
664.693
647.392
630.997
615.481
600.827
587.028
574.086
562.009
550.811
540.504
531.098
522.597
514.995
508.276
502.412
497.361
493.07
489.478
486.515
484.109
482.185
480.671
479.499
478.607
477.939
477.447
477.091
476.839
476.664
476.547
476.477
476.447
476.459
476.529
476.693
477.034
477.746
479.267
482.674
490.89
511.02
548.932
583.083
587.221
586.197
583.817
579.398
578.515
969.268
934.541
902.034
871.548
842.909
815.958
790.558
766.585
743.928
722.49
702.186
682.941
664.693
647.392
630.997
615.481
600.827
587.028
574.086
562.009
550.811
540.504
531.098
522.597
514.995
508.276
502.412
497.361
493.07
489.478
486.515
484.109
482.185
480.671
479.499
478.607
477.939
477.447
477.091
476.839
476.664
476.547
476.477
476.447
476.461
476.532
476.698
477.044
477.766
479.309
482.771
491.129
511.573
549.709
583.509
587.179
586.17
583.809
579.386
578.495
969.268
934.541
902.034
871.548
842.909
815.958
790.558
766.585
743.928
722.49
702.186
682.941
664.693
647.392
630.997
615.481
600.827
587.028
574.086
562.009
550.811
540.504
531.098
522.597
514.995
508.276
502.412
497.361
493.07
489.478
486.515
484.109
482.185
480.671
479.499
478.607
477.939
477.447
477.091
476.839
476.664
476.547
476.477
476.447
476.461
476.532
476.698
477.044
477.766
479.309
482.771
491.129
511.572
549.707
583.507
587.179
586.17
583.809
579.385
578.494
969.268
934.541
902.034
871.548
842.909
815.958
790.558
766.585
743.928
722.49
702.186
682.941
664.693
647.392
630.997
615.481
600.827
587.028
574.086
562.009
550.811
540.504
531.098
522.597
514.995
508.276
502.412
497.361
493.07
489.478
486.515
484.109
482.185
480.671
479.499
478.607
477.939
477.447
477.091
476.839
476.664
476.547
476.477
476.447
476.459
476.529
476.693
477.035
477.746
479.267
482.674
490.889
511.017
548.927
583.079
587.221
586.197
583.818
579.399
578.514
969.268
934.541
902.034
871.548
842.909
815.958
790.558
766.585
743.928
722.49
702.186
682.941
664.693
647.392
630.997
615.481
600.827
587.028
574.086
562.009
550.811
540.504
531.098
522.597
514.995
508.276
502.412
497.361
493.07
489.478
486.515
484.109
482.185
480.671
479.499
478.607
477.939
477.447
477.091
476.838
476.663
476.547
476.476
476.445
476.457
476.524
476.684
477.016
477.708
479.183
482.482
490.412
509.9
547.307
582.15
587.321
586.257
583.831
579.432
578.558
969.268
934.541
902.034
871.548
842.909
815.958
790.558
766.585
743.928
722.49
702.186
682.941
664.693
647.392
630.997
615.481
600.827
587.028
574.086
562.009
550.811
540.504
531.098
522.597
514.995
508.276
502.412
497.361
493.07
489.478
486.515
484.109
482.185
480.671
479.499
478.607
477.939
477.447
477.091
476.838
476.663
476.546
476.475
476.443
476.453
476.517
476.67
476.989
477.652
479.063
482.205
489.728
508.285
544.869
580.672
587.462
586.326
583.824
579.5
578.626
969.268
934.541
902.034
871.548
842.909
815.958
790.558
766.585
743.928
722.49
702.186
682.941
664.693
647.392
630.997
615.481
600.827
587.028
574.086
562.009
550.811
540.504
531.098
522.597
514.995
508.276
502.412
497.361
493.07
489.478
486.515
484.109
482.185
480.671
479.499
478.607
477.939
477.447
477.091
476.838
476.663
476.546
476.474
476.441
476.448
476.508
476.652
476.954
477.58
478.91
481.858
488.873
506.24
541.622
578.572
587.644
586.39
583.787
579.646
578.734
969.268
934.541
902.034
871.548
842.909
815.958
790.558
766.585
743.928
722.49
702.186
682.941
664.693
647.392
630.997
615.481
600.827
587.028
574.086
562.009
550.811
540.504
531.098
522.597
514.995
508.276
502.412
497.361
493.07
489.478
486.515
484.109
482.185
480.671
479.499
478.607
477.939
477.447
477.091
476.838
476.662
476.545
476.472
476.438
476.442
476.497
476.632
476.914
477.497
478.732
481.455
487.885
503.852
537.585
575.739
587.831
586.395
583.68
579.916
578.877
969.268
934.541
902.034
871.548
842.909
815.958
790.558
766.585
743.928
722.49
702.186
682.941
664.693
647.392
630.997
615.481
600.827
587.028
574.086
562.009
550.811
540.504
531.098
522.597
514.995
508.276
502.412
497.361
493.07
489.478
486.515
484.109
482.185
480.671
479.499
478.607
477.939
477.447
477.091
476.838
476.662
476.544
476.47
476.434
476.436
476.485
476.609
476.868
477.404
478.534
481.012
486.814
501.219
532.817
572.058
587.955
586.268
583.472
580.369
579.03
969.268
934.541
902.034
871.548
842.909
815.958
790.558
766.585
743.928
722.49
702.186
682.941
664.693
647.392
630.997
615.481
600.827
587.028
574.086
562.009
550.811
540.504
531.098
522.597
514.995
508.276
502.412
497.361
493.07
489.478
486.515
484.109
482.185
480.671
479.499
478.607
477.939
477.447
477.091
476.837
476.661
476.543
476.469
476.431
476.429
476.472
476.584
476.82
477.305
478.326
480.547
485.695
498.449
527.442
567.428
587.813
585.994
583.14
581.051
579.157
969.268
934.541
902.034
871.548
842.909
815.958
790.558
766.585
743.928
722.49
702.186
682.941
664.693
647.392
630.997
615.481
600.827
587.028
574.086
562.009
550.811
540.504
531.098
522.597
514.995
508.276
502.412
497.361
493.07
489.478
486.515
484.109
482.185
480.671
479.499
478.607
477.939
477.447
477.09
476.837
476.661
476.542
476.467
476.427
476.421
476.458
476.558
476.77
477.203
478.112
480.074
484.57
495.644
521.65
561.751
587.188
584.874
583.481
581.872
579.206
969.268
934.541
902.034
871.548
842.909
815.958
790.558
766.585
743.928
722.49
702.186
682.941
664.693
647.392
630.997
615.481
600.827
587.028
574.086
562.009
550.811
540.504
531.098
522.597
514.995
508.276
502.412
497.361
493.07
489.478
486.515
484.109
482.185
480.671
479.499
478.607
477.939
477.447
477.09
476.837
476.66
476.541
476.465
476.423
476.414
476.444
476.531
476.719
477.102
477.899
479.607
483.475
492.909
515.677
554.942
584.915
584.627
584.089
582.36
579.135
969.268
934.541
902.034
871.548
842.909
815.958
790.558
766.585
743.928
722.49
702.186
682.941
664.693
647.392
630.997
615.481
600.827
587.028
574.086
562.009
550.811
540.504
531.098
522.597
514.995
508.276
502.412
497.361
493.07
489.478
486.515
484.109
482.185
480.671
479.499
478.607
477.939
477.446
477.09
476.836
476.66
476.54
476.463
476.419
476.407
476.43
476.505
476.669
477.003
477.692
479.16
482.44
490.332
509.749
546.97
581.018
585.1
584.547
582.745
578.909
969.268
934.541
902.034
871.548
842.909
815.958
790.558
766.585
743.928
722.49
702.186
682.941
664.693
647.392
630.997
615.481
600.827
587.028
574.086
562.009
550.811
540.504
531.098
522.597
514.995
508.276
502.412
497.361
493.07
489.478
486.515
484.109
482.185
480.671
479.499
478.607
477.939
477.446
477.09
476.836
476.659
476.539
476.461
476.416
476.4
476.417
476.48
476.621
476.908
477.497
478.742
481.486
487.98
504.111
538.026
575.393
585.561
584.801
582.809
578.952
969.268
934.541
902.034
871.548
842.909
815.958
790.558
766.585
743.928
722.49
702.186
682.941
664.693
647.392
630.997
615.481
600.827
587.028
574.086
562.009
550.811
540.504
531.098
522.597
514.995
508.276
502.412
497.361
493.07
489.478
486.515
484.109
482.185
480.671
479.499
478.607
477.939
477.446
477.09
476.836
476.659
476.538
476.459
476.413
476.394
476.405
476.456
476.576
476.819
477.315
478.356
480.624
485.894
498.968
528.517
567.922
585.84
584.656
582.457
579.449
969.268
934.541
902.034
871.548
842.909
815.958
790.558
766.585
743.928
722.49
702.186
682.941
664.693
647.392
630.997
615.481
600.827
587.028
574.086
562.009
550.811
540.504
531.098
522.597
514.995
508.276
502.412
497.361
493.07
489.478
486.515
484.109
482.185
480.671
479.499
478.607
477.938
477.446
477.09
476.836
476.658
476.537
476.458
476.41
476.388
476.393
476.434
476.534
476.738
477.151
478.01
479.858
484.073
494.424
519.07
558.599
585.069
583.341
582.214
580.479
969.268
934.541
902.034
871.548
842.909
815.958
790.558
766.585
743.928
722.49
702.186
682.941
664.693
647.392
630.997
615.481
600.827
587.028
574.086
562.009
550.811
540.504
531.098
522.597
514.995
508.276
502.412
497.361
493.07
489.478
486.515
484.109
482.185
480.671
479.499
478.607
477.938
477.446
477.089
476.835
476.658
476.537
476.456
476.407
476.382
476.383
476.414
476.495
476.664
477.004
477.704
479.192
482.524
490.559
510.312
547.559
580.473
583.064
582.79
581.045
969.268
934.541
902.034
871.548
842.909
815.958
790.558
766.585
743.928
722.49
702.186
682.941
664.693
647.392
630.997
615.481
600.827
587.028
574.086
562.009
550.811
540.504
531.098
522.597
514.995
508.276
502.412
497.361
493.07
489.478
486.515
484.109
482.185
480.671
479.499
478.607
477.938
477.446
477.089
476.835
476.658
476.536
476.455
476.404
476.378
476.374
476.397
476.461
476.599
476.876
477.439
478.625
481.233
487.381
502.669
535.389
572.847
583.686
583.17
580.997
969.268
934.541
902.034
871.548
842.909
815.958
790.558
766.585
743.928
722.49
702.186
682.941
664.693
647.392
630.997
615.481
600.827
587.028
574.086
562.009
550.811
540.504
531.098
522.597
514.995
508.276
502.412
497.361
493.07
489.478
486.515
484.109
482.185
480.671
479.499
478.607
477.938
477.446
477.089
476.835
476.657
476.535
476.454
476.402
476.374
476.366
476.381
476.431
476.542
476.764
477.213
478.147
480.168
484.817
496.309
523.085
562.453
583.875
582.857
580.169
969.268
934.541
902.034
871.548
842.909
815.958
790.558
766.585
743.928
722.49
702.186
682.941
664.693
647.392
630.997
615.481
600.827
587.028
574.086
562.009
550.811
540.504
531.098
522.597
514.995
508.276
502.412
497.361
493.07
489.478
486.515
484.109
482.185
480.671
479.499
478.607
477.938
477.446
477.089
476.835
476.657
476.535
476.453
476.401
476.37
476.359
476.368
476.406
476.493
476.669
477.023
477.749
479.298
482.777
491.211
511.837
549.546
581.238
581.104
579.866
969.268
934.541
902.034
871.548
842.909
815.958
790.558
766.585
743.928
722.49
702.186
682.941
664.693
647.392
630.997
615.481
600.827
587.028
574.086
562.009
550.811
540.504
531.098
522.597
514.995
508.277
502.412
497.361
493.07
489.478
486.515
484.109
482.185
480.671
479.499
478.607
477.938
477.446
477.089
476.835
476.657
476.535
476.452
476.399
476.367
476.353
476.357
476.384
476.451
476.589
476.865
477.425
478.603
481.192
487.294
502.471
535.07
572.476
581.22
579.747
969.268
934.541
902.034
871.548
842.909
815.958
790.558
766.585
743.928
722.49
702.186
682.941
664.693
647.392
630.997
615.481
600.827
587.028
574.086
562.009
550.811
540.504
531.098
522.597
514.995
508.277
502.412
497.361
493.07
489.478
486.515
484.109
482.185
480.671
479.499
478.607
477.938
477.446
477.089
476.835
476.657
476.534
476.452
476.398
476.365
476.349
476.348
476.367
476.417
476.523
476.736
477.163
478.049
479.959
484.334
495.134
520.71
560.423
581.575
578.947
969.268
934.541
902.034
871.548
842.909
815.958
790.558
766.585
743.928
722.49
702.186
682.941
664.693
647.392
630.997
615.481
600.827
587.028
574.086
562.009
550.811
540.504
531.098
522.597
514.995
508.277
502.413
497.361
493.071
489.478
486.515
484.109
482.185
480.672
479.5
478.607
477.939
477.446
477.089
476.835
476.657
476.534
476.452
476.398
476.364
476.346
476.341
476.353
476.389
476.469
476.631
476.954
477.614
479.01
482.122
489.612
508.173
545.266
578.971
576.244
969.268
934.541
902.034
871.548
842.909
815.958
790.558
766.585
743.928
722.49
702.186
682.941
664.694
647.392
630.997
615.481
600.827
587.028
574.086
562.01
550.812
540.505
531.099
522.598
514.997
508.278
502.414
497.363
493.072
489.48
486.517
484.111
482.187
480.673
479.501
478.609
477.94
477.448
477.091
476.836
476.658
476.536
476.453
476.398
476.364
476.344
476.337
476.343
476.369
476.427
476.548
476.789
477.277
478.295
480.508
485.657
498.473
528.625
567.928
574.864
969.268
934.541
902.034
871.548
842.909
815.958
790.558
766.585
743.928
722.49
702.186
682.941
664.694
647.393
630.998
615.482
600.828
587.029
574.088
562.012
550.814
540.507
531.102
522.601
515
508.282
502.418
497.367
493.077
489.485
486.522
484.115
482.191
480.678
479.506
478.613
477.945
477.452
477.095
476.841
476.662
476.54
476.457
476.402
476.367
476.346
476.337
476.339
476.356
476.398
476.486
476.664
477.021
477.752
479.309
482.815
491.381
513.162
552.781
574.787
969.268
934.541
902.034
871.548
842.909
815.958
790.558
766.585
743.928
722.49
702.186
682.942
664.695
647.394
631
615.484
600.831
587.033
574.092
562.017
550.821
540.515
531.111
522.611
515.011
508.294
502.431
497.381
493.09
489.499
486.536
484.13
482.206
480.692
479.52
478.627
477.958
477.465
477.108
476.853
476.675
476.552
476.469
476.413
476.378
476.357
476.346
476.345
476.356
476.385
476.449
476.578
476.836
477.359
478.447
480.822
486.421
500.812
534.361
570.641
969.268
934.541
902.034
871.548
842.909
815.958
790.559
766.585
743.929
722.491
702.187
682.944
664.697
647.398
631.005
615.492
600.84
587.045
574.106
562.034
550.841
540.538
531.137
522.64
515.043
508.329
502.467
497.419
493.13
489.539
486.577
484.17
482.246
480.732
479.559
478.666
477.996
477.503
477.145
476.89
476.711
476.587
476.503
476.448
476.412
476.39
476.379
476.376
476.382
476.403
476.448
476.539
476.724
477.095
477.858
479.481
483.148
492.289
516.115
555.746
969.268
934.541
902.034
871.548
842.909
815.959
790.559
766.586
743.93
722.494
702.191
682.95
664.706
647.41
631.021
615.513
600.867
587.078
574.147
562.083
550.898
540.604
531.21
522.722
515.131
508.423
502.567
497.523
493.237
489.648
486.686
484.28
482.355
480.84
479.666
478.77
478.099
477.604
477.244
476.987
476.807
476.682
476.597
476.541
476.505
476.483
476.471
476.468
476.472
476.487
476.519
476.583
476.711
476.968
477.493
478.586
480.969
486.653
501.74
536.403
969.268
934.541
902.034
871.549
842.909
815.959
790.56
766.589
743.935
722.501
702.203
682.967
664.73
647.443
631.066
615.572
600.942
587.17
574.258
562.214
551.048
540.775
531.401
522.932
515.359
508.665
502.822
497.788
493.509
489.924
486.965
484.559
482.632
481.114
479.936
479.037
478.361
477.861
477.497
477.236
477.052
476.924
476.837
476.78