/*--------------------------------*- C++ -*----------------------------------*\
  =========                 |
  \\      /  F ield         | OpenFOAM: The Open Source CFD Toolbox
   \\    /   O peration     | Website:  https://openfoam.org
    \\  /    A nd           | Version:  9
     \\/     M anipulation  |
\*---------------------------------------------------------------------------*/
FoamFile
{
    format      ascii;
    class       volScalarField;
    location    "0.004";
    object      nut;
}
// * * * * * * * * * * * * * * * * * * * * * * * * * * * * * * * * * * * * * //

dimensions      [0 2 -1 0 0 0 0];

internalField   nonuniform List<scalar> 
36400
(
0.337301
0.335812
0.33439
0.333031
0.331737
0.330509
0.329349
0.328263
0.327255
0.326327
0.32548
0.32471
0.324009
0.323369
0.322777
0.322222
0.321694
0.321185
0.320693
0.320217
0.319757
0.319317
0.318897
0.318497
0.318112
0.317735
0.317358
0.316972
0.316576
0.316172
0.315769
0.315377
0.315011
0.314682
0.314398
0.314165
0.313985
0.313857
0.313776
0.313734
0.313717
0.313709
0.313688
0.313634
0.313528
0.313365
0.313145
0.312882
0.312596
0.312304
0.312024
0.311766
0.311538
0.311341
0.311176
0.311043
0.310939
0.310866
0.310843
0.310986
0.337301
0.335812
0.334389
0.333029
0.331732
0.3305
0.329333
0.328237
0.327216
0.326271
0.325405
0.324615
0.323896
0.323241
0.322641
0.322086
0.321568
0.321081
0.320621
0.320186
0.319778
0.319395
0.31904
0.318708
0.318395
0.318093
0.317795
0.317491
0.317178
0.316858
0.316536
0.316221
0.315924
0.315656
0.315425
0.315237
0.315093
0.314995
0.314938
0.314916
0.314916
0.314925
0.314924
0.314895
0.314824
0.314705
0.314538
0.314332
0.314101
0.313861
0.313626
0.313405
0.313204
0.313028
0.31288
0.312761
0.312672
0.312621
0.312632
0.312814
0.337301
0.335812
0.334387
0.333026
0.331725
0.330485
0.329308
0.328196
0.327152
0.326179
0.325279
0.324452
0.323697
0.323009
0.322385
0.321819
0.321306
0.320841
0.320423
0.320048
0.319716
0.319425
0.319172
0.318952
0.318758
0.31858
0.318411
0.31824
0.318063
0.317877
0.317684
0.31749
0.317304
0.317132
0.316982
0.31686
0.316768
0.316708
0.316678
0.316673
0.316686
0.316705
0.316719
0.316716
0.316686
0.316623
0.316528
0.316405
0.316262
0.316108
0.315953
0.315804
0.315666
0.315543
0.315441
0.315364
0.315319
0.315324
0.315415
0.315707
0.337301
0.335811
0.334386
0.333022
0.331718
0.330471
0.329282
0.328152
0.327083
0.326078
0.325138
0.324266
0.323463
0.322729
0.322065
0.321469
0.320941
0.32048
0.320086
0.319758
0.319493
0.319287
0.319135
0.319028
0.318958
0.318911
0.318876
0.318843
0.318803
0.318753
0.318689
0.318616
0.318537
0.318458
0.318384
0.31832
0.31827
0.318237
0.318219
0.318216
0.318224
0.318236
0.318247
0.318251
0.318243
0.318219
0.318179
0.318125
0.31806
0.317989
0.317915
0.317843
0.317777
0.31772
0.317677
0.317657
0.317673
0.317754
0.317966
0.318481
0.337301
0.335811
0.334385
0.33302
0.331712
0.330459
0.329261
0.328116
0.327026
0.325992
0.325017
0.324103
0.323253
0.32247
0.321757
0.321119
0.320558
0.320078
0.319682
0.319369
0.319138
0.318984
0.3189
0.318875
0.318896
0.318947
0.319015
0.319087
0.31915
0.319199
0.31923
0.319242
0.319238
0.319222
0.319199
0.319172
0.319147
0.319125
0.319108
0.319097
0.319091
0.319089
0.319088
0.319086
0.319081
0.319072
0.319058
0.319041
0.31902
0.318997
0.318974
0.318953
0.318935
0.318924
0.318927
0.318954
0.319029
0.3192
0.31958
0.320505
0.337301
0.335811
0.334384
0.333018
0.331708
0.330452
0.329247
0.328092
0.326988
0.325934
0.324933
0.323986
0.323099
0.322274
0.321519
0.320838
0.32024
0.319729
0.319311
0.318989
0.318761
0.318624
0.31857
0.318585
0.318654
0.31876
0.318887
0.319018
0.31914
0.319246
0.319329
0.319388
0.319425
0.319443
0.319445
0.319437
0.319423
0.319406
0.319388
0.319372
0.319357
0.319345
0.319335
0.319327
0.31932
0.319314
0.319308
0.319303
0.319299
0.319295
0.319293
0.319293
0.319297
0.31931
0.31934
0.319405
0.319542
0.319832
0.320478
0.322158
0.337301
0.33581
0.334384
0.333017
0.331706
0.330447
0.329239
0.328079
0.326966
0.3259
0.324882
0.323916
0.323004
0.322151
0.321365
0.320653
0.320023
0.319483
0.31904
0.318698
0.318459
0.318317
0.318266
0.318291
0.318377
0.318504
0.318655
0.318812
0.318961
0.319091
0.319198
0.319278
0.319333
0.319365
0.31938
0.319381
0.319373
0.31936
0.319344
0.319327
0.319311
0.319297
0.319284
0.319274
0.319266
0.319261
0.319257
0.319255
0.319254
0.319256
0.31926
0.319267
0.31928
0.319307
0.319361
0.31947
0.319695
0.320173
0.321285
0.324355
0.337301
0.33581
0.334384
0.333017
0.331705
0.330445
0.329235
0.328072
0.326955
0.325883
0.324857
0.323879
0.322953
0.322084
0.32128
0.320547
0.319896
0.319336
0.318873
0.318514
0.31826
0.318108
0.31805
0.318073
0.318159
0.318291
0.318447
0.318612
0.318769
0.318908
0.319023
0.319111
0.319173
0.319211
0.319232
0.319238
0.319234
0.319224
0.319211
0.319196
0.319182
0.31917
0.319159
0.31915
0.319143
0.319138
0.319135
0.319134
0.319134
0.319137
0.319142
0.319154
0.319175
0.319218
0.319303
0.319478
0.319841
0.320638
0.322585
0.328045
0.337301
0.33581
0.334384
0.333016
0.331704
0.330445
0.329234
0.328069
0.32695
0.325875
0.324845
0.323862
0.322929
0.322053
0.321238
0.320495
0.319833
0.31926
0.318785
0.318415
0.31815
0.317989
0.317923
0.31794
0.318023
0.318153
0.318309
0.318474
0.318632
0.318773
0.31889
0.31898
0.319044
0.319086
0.319108
0.319117
0.319115
0.319108
0.319097
0.319086
0.319074
0.319064
0.319055
0.319047
0.319042
0.319038
0.319036
0.319035
0.319036
0.31904
0.319048
0.319064
0.319097
0.319163
0.319295
0.319569
0.320152
0.32148
0.324877
0.333789
0.337301
0.33581
0.334384
0.333016
0.331704
0.330444
0.329233
0.328068
0.326948
0.325872
0.32484
0.323855
0.32292
0.322039
0.32122
0.320472
0.319804
0.319225
0.318744
0.318367
0.318097
0.31793
0.317859
0.317872
0.317951
0.318078
0.318232
0.318396
0.318554
0.318695
0.318812
0.318902
0.318967
0.319009
0.319033
0.319042
0.319043
0.319037
0.319028
0.319017
0.319008
0.318999
0.318991
0.318985
0.318981
0.318978
0.318976
0.318976
0.318978
0.318984
0.318995
0.31902
0.319068
0.319167
0.319368
0.319788
0.320705
0.322887
0.328559
0.34091
0.337301
0.33581
0.334384
0.333016
0.331704
0.330444
0.329233
0.328068
0.326947
0.325871
0.324839
0.323852
0.322916
0.322034
0.321213
0.320463
0.319792
0.319211
0.318727
0.318347
0.318073
0.317903
0.31783
0.31784
0.317917
0.318042
0.318195
0.318358
0.318515
0.318656
0.318772
0.318863
0.318928
0.31897
0.318994
0.319004
0.319005
0.319
0.318992
0.318982
0.318973
0.318965
0.318959
0.318953
0.318949
0.318947
0.318946
0.318947
0.31895
0.318958
0.318976
0.319011
0.319081
0.319224
0.319517
0.320141
0.321551
0.325034
0.333803
0.347517
0.337301
0.33581
0.334384
0.333016
0.331704
0.330444
0.329233
0.328067
0.326947
0.32587
0.324838
0.323852
0.322914
0.322032
0.321211
0.32046
0.319788
0.319205
0.31872
0.318339
0.318064
0.317893
0.317818
0.317827
0.317903
0.318027
0.31818
0.318342
0.318498
0.318638
0.318755
0.318845
0.31891
0.318952
0.318977
0.318987
0.318988
0.318983
0.318975
0.318967
0.318958
0.31895
0.318944
0.318939
0.318936
0.318933
0.318933
0.318935
0.31894
0.318952
0.318977
0.319026
0.319125
0.319326
0.319745
0.320658
0.322805
0.328222
0.340264
0.352484
0.337301
0.33581
0.334384
0.333016
0.331704
0.330444
0.329233
0.328067
0.326947
0.32587
0.324838
0.323851
0.322914
0.322031
0.32121
0.320458
0.319786
0.319203
0.318718
0.318336
0.318061
0.317889
0.317814
0.317822
0.317898
0.318022
0.318173
0.318335
0.318492
0.318631
0.318748
0.318838
0.318903
0.318945
0.31897
0.31898
0.318981
0.318977
0.318969
0.31896
0.318952
0.318944
0.318938
0.318933
0.31893
0.318928
0.318928
0.318931
0.318939
0.318956
0.31899
0.319059
0.319196
0.319477
0.320076
0.321424
0.324688
0.332741
0.3466
0.353836
0.337301
0.33581
0.334384
0.333016
0.331704
0.330444
0.329233
0.328067
0.326947
0.32587
0.324838
0.323851
0.322914
0.322031
0.32121
0.320458
0.319786
0.319203
0.318717
0.318335
0.318059
0.317888
0.317812
0.31782
0.317896
0.318019
0.318171
0.318333
0.318489
0.318629
0.318745
0.318835
0.3189
0.318943
0.318967
0.318977
0.318979
0.318974
0.318966
0.318958
0.318949
0.318942
0.318936
0.318931
0.318928
0.318927
0.318928
0.318933
0.318944
0.318967
0.319014
0.319107
0.319294
0.319686
0.320537
0.322511
0.327347
0.338263
0.351688
0.35393
0.337301
0.33581
0.334384
0.333016
0.331704
0.330444
0.329233
0.328067
0.326947
0.32587
0.324838
0.323851
0.322914
0.322031
0.321209
0.320458
0.319786
0.319202
0.318717
0.318335
0.318059
0.317887
0.317812
0.31782
0.317895
0.318019
0.31817
0.318332
0.318488
0.318628
0.318744
0.318834
0.318899
0.318942
0.318966
0.318977
0.318978
0.318973
0.318966
0.318957
0.318949
0.318941
0.318935
0.318931
0.318928
0.318927
0.318929
0.318936
0.318951
0.318983
0.319045
0.31917
0.319423
0.319961
0.321157
0.324014
0.330923
0.344065
0.35535
0.354491
0.337301
0.33581
0.334384
0.333016
0.331704
0.330444
0.329233
0.328067
0.326947
0.32587
0.324838
0.323851
0.322914
0.322031
0.321209
0.320458
0.319786
0.319202
0.318717
0.318335
0.318059
0.317887
0.317811
0.31782
0.317895
0.318019
0.31817
0.318332
0.318488
0.318628
0.318744
0.318834
0.318899
0.318941
0.318966
0.318976
0.318977
0.318973
0.318965
0.318957
0.318948
0.318941
0.318935
0.318931
0.318928
0.318928
0.318932
0.318941
0.318962
0.319003
0.319085
0.31925
0.319591
0.320325
0.322004
0.326094
0.335454
0.349236
0.356199
0.355471
0.337301
0.33581
0.334384
0.333016
0.331704
0.330444
0.329233
0.328067
0.326947
0.32587
0.324838
0.323851
0.322914
0.322031
0.321209
0.320458
0.319786
0.319202
0.318717
0.318335
0.318059
0.317887
0.317811
0.31782
0.317895
0.318018
0.31817
0.318332
0.318488
0.318628
0.318744
0.318834
0.318899
0.318941
0.318966
0.318976
0.318977
0.318973
0.318965
0.318957
0.318948
0.318941
0.318935
0.318931
0.318929
0.31893
0.318935
0.318948
0.318975
0.319029
0.319135
0.319351
0.319804
0.320799
0.323133
0.328821
0.340535
0.353283
0.356132
0.355781
0.337301
0.33581
0.334384
0.333016
0.331704
0.330444
0.329233
0.328067
0.326947
0.32587
0.324838
0.323851
0.322914
0.322031
0.321209
0.320458
0.319786
0.319202
0.318717
0.318335
0.318059
0.317887
0.317811
0.31782
0.317895
0.318018
0.31817
0.318332
0.318488
0.318627
0.318744
0.318834
0.318899
0.318941
0.318966
0.318976
0.318977
0.318973
0.318965
0.318957
0.318948
0.318941
0.318936
0.318932
0.31893
0.318932
0.31894
0.318956
0.318991
0.319059
0.319196
0.319475
0.320071
0.321407
0.324617
0.33225
0.345556
0.3562
0.356172
0.355867
0.337301
0.33581
0.334384
0.333016
0.331704
0.330444
0.329233
0.328067
0.326947
0.32587
0.324838
0.323851
0.322914
0.322031
0.321209
0.320458
0.319786
0.319202
0.318717
0.318335
0.318059
0.317887
0.317811
0.31782
0.317895
0.318018
0.31817
0.318332
0.318488
0.318627
0.318744
0.318834
0.318899
0.318941
0.318966
0.318976
0.318977
0.318973
0.318965
0.318957
0.318948
0.318941
0.318936
0.318932
0.318932
0.318935
0.318945
0.318966
0.31901
0.319096
0.319269
0.319628
0.320405
0.322188
0.32653
0.336296
0.349956
0.35707
0.356834
0.356025
0.337301
0.33581
0.334384
0.333016
0.331704
0.330444
0.329233
0.328067
0.326947
0.32587
0.324838
0.323851
0.322914
0.322031
0.321209
0.320458
0.319786
0.319202
0.318717
0.318335
0.318059
0.317887
0.317811
0.31782
0.317895
0.318018
0.31817
0.318332
0.318488
0.318627
0.318744
0.318834
0.318899
0.318941
0.318966
0.318976
0.318977
0.318973
0.318965
0.318957
0.318949
0.318942
0.318936
0.318933
0.318933
0.318938
0.318951
0.318978
0.319032
0.319139
0.319356
0.319812
0.320815
0.323165
0.32889
0.340645
0.353453
0.357041
0.356987
0.356358
0.337301
0.33581
0.334384
0.333016
0.331704
0.330444
0.329233
0.328067
0.326947
0.32587
0.324838
0.323851
0.322914
0.322031
0.321209
0.320458
0.319786
0.319202
0.318717
0.318335
0.318059
0.317887
0.317811
0.31782
0.317895
0.318018
0.31817
0.318332
0.318488
0.318627
0.318744
0.318834
0.318899
0.318941
0.318966
0.318976
0.318977
0.318973
0.318965
0.318957
0.318949
0.318942
0.318937
0.318934
0.318935
0.318941
0.318957
0.318991
0.319057
0.319188
0.319458
0.32003
0.32131
0.324369
0.331691
0.344877
0.355999
0.356888
0.356904
0.356424
0.337301
0.33581
0.334384
0.333016
0.331704
0.330444
0.329233
0.328067
0.326947
0.32587
0.324838
0.323851
0.322914
0.322031
0.321209
0.320458
0.319786
0.319202
0.318717
0.318335
0.318059
0.317887
0.317811
0.31782
0.317895
0.318018
0.31817
0.318332
0.318488
0.318627
0.318744
0.318834
0.318899
0.318941
0.318966
0.318976
0.318977
0.318973
0.318965
0.318957
0.318949
0.318942
0.318937
0.318935
0.318937
0.318945
0.318965
0.319005
0.319085
0.319244
0.319575
0.320286
0.321903
0.325823
0.334858
0.34866
0.357524
0.357043
0.356757
0.356279
0.337301
0.33581
0.334384
0.333016
0.331704
0.330444
0.329233
0.328067
0.326947
0.32587
0.324838
0.323851
0.322914
0.322031
0.321209
0.320458
0.319786
0.319202
0.318717
0.318335
0.318059
0.317887
0.317811
0.31782
0.317895
0.318018
0.31817
0.318332
0.318488
0.318627
0.318744
0.318834
0.318899
0.318941
0.318966
0.318976
0.318977
0.318973
0.318965
0.318957
0.318949
0.318942
0.318938
0.318936
0.318939
0.31895
0.318973
0.319021
0.319116
0.319307
0.319708
0.320581
0.322598
0.327519
0.338226
0.351817
0.357784
0.357531
0.356893
0.355977
0.337301
0.33581
0.334384
0.333016
0.331704
0.330444
0.329233
0.328067
0.326947
0.32587
0.324838
0.323851
0.322914
0.322031
0.321209
0.320458
0.319786
0.319202
0.318717
0.318335
0.318059
0.317887
0.317811
0.31782
0.317895
0.318018
0.31817
0.318332
0.318488
0.318627
0.318744
0.318834
0.318899
0.318941
0.318966
0.318976
0.318977
0.318973
0.318965
0.318957
0.318949
0.318943
0.318939
0.318938
0.318942
0.318955
0.318983
0.319039
0.31915
0.319378
0.319857
0.320912
0.323392
0.329422
0.341571
0.354324
0.357717
0.357613
0.357054
0.355859
0.337301
0.33581
0.334384
0.333016
0.331704
0.330444
0.329233
0.328067
0.326947
0.32587
0.324838
0.323851
0.322914
0.322031
0.321209
0.320458
0.319786
0.319202
0.318717
0.318335
0.318059
0.317887
0.317811
0.31782
0.317895
0.318018
0.31817
0.318332
0.318488
0.318627
0.318744
0.318834
0.318899
0.318941
0.318966
0.318976
0.318978
0.318973
0.318966
0.318957
0.318949
0.318943
0.318939
0.318939
0.318944
0.31896
0.318992
0.319057
0.319187
0.319453
0.320018
0.321278
0.324283
0.331487
0.344678
0.356199
0.357598
0.357557
0.357067
0.355891
0.337301
0.33581
0.334384
0.333016
0.331704
0.330444
0.329233
0.328067
0.326947
0.32587
0.324838
0.323851
0.322914
0.322031
0.321209
0.320458
0.319786
0.319202
0.318717
0.318335
0.318059
0.317887
0.317811
0.31782
0.317895
0.318018
0.31817
0.318332
0.318488
0.318627
0.318744
0.318834
0.318899
0.318941
0.318966
0.318976
0.318978
0.318973
0.318966
0.318957
0.31895
0.318943
0.31894
0.31894
0.318947
0.318965
0.319002
0.319076
0.319225
0.319532
0.320189
0.321674
0.325255
0.333639
0.347417
0.357494
0.357476
0.35743
0.356968
0.356008
0.337301
0.33581
0.334384
0.333016
0.331704
0.330444
0.329233
0.328067
0.326947
0.32587
0.324838
0.323851
0.322914
0.322031
0.321209
0.320458
0.319786
0.319202
0.318717
0.318335
0.318059
0.317887
0.317811
0.31782
0.317895
0.318018
0.31817
0.318332
0.318488
0.318627
0.318744
0.318834
0.318899
0.318941
0.318966
0.318976
0.318978
0.318973
0.318966
0.318957
0.31895
0.318944
0.318941
0.318942
0.31895
0.31897
0.319012
0.319096
0.319264
0.319614
0.320369
0.322093
0.326281
0.335786
0.349737
0.358246
0.357598
0.357251
0.356831
0.356066
0.337301
0.33581
0.334384
0.333016
0.331704
0.330444
0.329233
0.328067
0.326947
0.32587
0.324838
0.323851
0.322914
0.322031
0.321209
0.320458
0.319786
0.319202
0.318717
0.318335
0.318059
0.317887
0.317811
0.31782
0.317895
0.318018
0.31817
0.318332
0.318488
0.318627
0.318744
0.318834
0.318899
0.318941
0.318966
0.318976
0.318978
0.318973
0.318966
0.318958
0.31895
0.318944
0.318941
0.318943
0.318953
0.318975
0.319022
0.319115
0.319303
0.319696
0.320551
0.322523
0.327327
0.337849
0.351657
0.358455
0.358005
0.357166
0.356579
0.356079
0.337301
0.33581
0.334384
0.333016
0.331704
0.330444
0.329233
0.328067
0.326947
0.32587
0.324838
0.323851
0.322914
0.322031
0.321209
0.320458
0.319786
0.319202
0.318717
0.318335
0.318059
0.317887
0.317811
0.31782
0.317895
0.318018
0.31817
0.318332
0.318488
0.318627
0.318744
0.318834
0.318899
0.318941
0.318966
0.318976
0.318978
0.318973
0.318966
0.318958
0.31895
0.318945
0.318942
0.318945
0.318955
0.318981
0.319032
0.319134
0.319341
0.319777
0.32073
0.322949
0.328355
0.339748
0.353216
0.358512
0.358118
0.357306
0.356374
0.356063
0.337301
0.33581
0.334384
0.333016
0.331704
0.330444
0.329233
0.328067
0.326947
0.32587
0.324838
0.323851
0.322914
0.322031
0.321209
0.320458
0.319786
0.319202
0.318717
0.318335
0.318059
0.317887
0.317811
0.31782
0.317895
0.318018
0.31817
0.318332
0.318488
0.318627
0.318744
0.318834
0.318899
0.318941
0.318966
0.318976
0.318978
0.318973
0.318966
0.318958
0.31895
0.318945
0.318943
0.318946
0.318958
0.318985
0.319041
0.319151
0.319377
0.319853
0.320899
0.323356
0.329327
0.341421
0.354451
0.358485
0.358179
0.357399
0.356248
0.356037
0.337301
0.33581
0.334384
0.333016
0.331704
0.330444
0.329233
0.328067
0.326947
0.32587
0.324838
0.323851
0.322914
0.322031
0.321209
0.320458
0.319786
0.319202
0.318717
0.318335
0.318059
0.317887
0.317811
0.31782
0.317895
0.318018
0.31817
0.318332
0.318488
0.318627
0.318744
0.318834
0.318899
0.318941
0.318966
0.318976
0.318978
0.318973
0.318966
0.318958
0.318951
0.318945
0.318943
0.318947
0.31896
0.318989
0.319049
0.319167
0.319409
0.319921
0.321054
0.323731
0.330204
0.342829
0.355399
0.358439
0.358193
0.357453
0.35618
0.356011
0.337301
0.33581
0.334384
0.333016
0.331704
0.330444
0.329233
0.328067
0.326947
0.32587
0.324838
0.323851
0.322914
0.322031
0.321209
0.320458
0.319786
0.319202
0.318717
0.318335
0.318059
0.317887
0.317811
0.31782
0.317895
0.318018
0.31817
0.318332
0.318488
0.318627
0.318744
0.318834
0.318899
0.318941
0.318966
0.318976
0.318978
0.318973
0.318966
0.318958
0.318951
0.318946
0.318944
0.318948
0.318962
0.318993
0.319055
0.31918
0.319436
0.31998
0.321187
0.324055
0.330953
0.343956
0.356101
0.358392
0.358184
0.357481
0.35615
0.355992
0.337301
0.33581
0.334384
0.333016
0.331704
0.330444
0.329233
0.328067
0.326947
0.32587
0.324838
0.323851
0.322914
0.322031
0.321209
0.320458
0.319786
0.319202
0.318717
0.318335
0.318059
0.317887
0.317811
0.31782
0.317895
0.318018
0.31817
0.318332
0.318488
0.318627
0.318744
0.318834
0.318899
0.318941
0.318966
0.318976
0.318978
0.318973
0.318966
0.318958
0.318951
0.318946
0.318944
0.318949
0.318963
0.318996
0.319061
0.319191
0.319458
0.320026
0.321293
0.324313
0.331541
0.344799
0.356594
0.358356
0.35817
0.357493
0.35614
0.355982
0.337301
0.33581
0.334384
0.333016
0.331704
0.330444
0.329233
0.328067
0.326947
0.32587
0.324838
0.323851
0.322914
0.322031
0.321209
0.320458
0.319786
0.319202
0.318717
0.318335
0.318059
0.317887
0.317811
0.31782
0.317895
0.318018
0.31817
0.318332
0.318488
0.318627
0.318744
0.318834
0.318899
0.318941
0.318966
0.318976
0.318978
0.318973
0.318966
0.318958
0.318951
0.318946
0.318945
0.318949
0.318964
0.318998
0.319064
0.319198
0.319473
0.320058
0.321367
0.324493
0.331947
0.345357
0.356903
0.358331
0.358156
0.357495
0.356139
0.355976
0.337301
0.33581
0.334384
0.333016
0.331704
0.330444
0.329233
0.328067
0.326947
0.32587
0.324838
0.323851
0.322914
0.322031
0.321209
0.320458
0.319786
0.319202
0.318717
0.318335
0.318059
0.317887
0.317811
0.31782
0.317895
0.318018
0.31817
0.318332
0.318488
0.318627
0.318744
0.318834
0.318899
0.318941
0.318966
0.318976
0.318978
0.318973
0.318966
0.318958
0.318951
0.318946
0.318945
0.31895
0.318965
0.318999
0.319066
0.319201
0.31948
0.320074
0.321404
0.324583
0.332148
0.345625
0.357046
0.358321
0.35815
0.357496
0.356139
0.355974
0.337301
0.33581
0.334384
0.333016
0.331704
0.330444
0.329233
0.328067
0.326947
0.32587
0.324838
0.323851
0.322914
0.322031
0.321209
0.320458
0.319786
0.319202
0.318717
0.318335
0.318059
0.317887
0.317811
0.31782
0.317895
0.318018
0.31817
0.318332
0.318488
0.318627
0.318744
0.318834
0.318899
0.318941
0.318966
0.318976
0.318978
0.318973
0.318966
0.318958
0.318951
0.318946
0.318945
0.31895
0.318965
0.318999
0.319066
0.319201
0.31948
0.320074
0.321404
0.324583
0.332148
0.345624
0.357045
0.358321
0.35815
0.357496
0.356139
0.355974
0.337301
0.33581
0.334384
0.333016
0.331704
0.330444
0.329233
0.328067
0.326947
0.32587
0.324838
0.323851
0.322914
0.322031
0.321209
0.320458
0.319786
0.319202
0.318717
0.318335
0.318059
0.317887
0.317811
0.31782
0.317895
0.318018
0.31817
0.318332
0.318488
0.318627
0.318744
0.318834
0.318899
0.318941
0.318966
0.318976
0.318978
0.318973
0.318966
0.318958
0.318951
0.318946
0.318945
0.318949
0.318964
0.318998
0.319064
0.319198
0.319473
0.320058
0.321367
0.324492
0.331946
0.345355
0.356902
0.358331
0.358156
0.357495
0.356139
0.355976
0.337301
0.33581
0.334384
0.333016
0.331704
0.330444
0.329233
0.328067
0.326947
0.32587
0.324838
0.323851
0.322914
0.322031
0.321209
0.320458
0.319786
0.319202
0.318717
0.318335
0.318059
0.317887
0.317811
0.31782
0.317895
0.318018
0.31817
0.318332
0.318488
0.318627
0.318744
0.318834
0.318899
0.318941
0.318966
0.318976
0.318978
0.318973
0.318966
0.318958
0.318951
0.318946
0.318944
0.318949
0.318963
0.318996
0.319061
0.319191
0.319458
0.320026
0.321293
0.324312
0.33154
0.344796
0.356593
0.358357
0.358171
0.357493
0.356141
0.355982
0.337301
0.33581
0.334384
0.333016
0.331704
0.330444
0.329233
0.328067
0.326947
0.32587
0.324838
0.323851
0.322914
0.322031
0.321209
0.320458
0.319786
0.319202
0.318717
0.318335
0.318059
0.317887
0.317811
0.31782
0.317895
0.318018
0.31817
0.318332
0.318488
0.318627
0.318744
0.318834
0.318899
0.318941
0.318966
0.318976
0.318978
0.318973
0.318966
0.318958
0.318951
0.318946
0.318944
0.318948
0.318962
0.318993
0.319055
0.31918
0.319436
0.31998
0.321187
0.324054
0.33095
0.343953
0.3561
0.358394
0.358186
0.357482
0.356152
0.355994
0.337301
0.33581
0.334384
0.333016
0.331704
0.330444
0.329233
0.328067
0.326947
0.32587
0.324838
0.323851
0.322914
0.322031
0.321209
0.320458
0.319786
0.319202
0.318717
0.318335
0.318059
0.317887
0.317811
0.31782
0.317895
0.318018
0.31817
0.318332
0.318488
0.318627
0.318744
0.318834
0.318899
0.318941
0.318966
0.318976
0.318978
0.318973
0.318966
0.318958
0.318951
0.318945
0.318943
0.318947
0.31896
0.318989
0.319049
0.319167
0.319409
0.319921
0.321054
0.32373
0.330202
0.342826
0.355399
0.358442
0.358196
0.357456
0.356183
0.356014
0.337301
0.33581
0.334384
0.333016
0.331704
0.330444
0.329233
0.328067
0.326947
0.32587
0.324838
0.323851
0.322914
0.322031
0.321209
0.320458
0.319786
0.319202
0.318717
0.318335
0.318059
0.317887
0.317811
0.31782
0.317895
0.318018
0.31817
0.318332
0.318488
0.318627
0.318744
0.318834
0.318899
0.318941
0.318966
0.318976
0.318978
0.318973
0.318966
0.318958
0.31895
0.318945
0.318943
0.318946
0.318958
0.318985
0.319041
0.319151
0.319377
0.319852
0.320899
0.323355
0.329325
0.341418
0.354451
0.35849
0.358183
0.357403
0.356253
0.356042
0.337301
0.33581
0.334384
0.333016
0.331704
0.330444
0.329233
0.328067
0.326947
0.32587
0.324838
0.323851
0.322914
0.322031
0.321209
0.320458
0.319786
0.319202
0.318717
0.318335
0.318059
0.317887
0.317811
0.31782
0.317895
0.318018
0.31817
0.318332
0.318488
0.318627
0.318744
0.318834
0.318899
0.318941
0.318966
0.318976
0.318978
0.318973
0.318966
0.318958
0.31895
0.318945
0.318942
0.318945
0.318955
0.318981
0.319032
0.319134
0.319341
0.319776
0.320729
0.322948
0.328353
0.339745
0.353216
0.358518
0.358123
0.357311
0.356381
0.35607
0.337301
0.33581
0.334384
0.333016
0.331704
0.330444
0.329233
0.328067
0.326947
0.32587
0.324838
0.323851
0.322914
0.322031
0.321209
0.320458
0.319786
0.319202
0.318717
0.318335
0.318059
0.317887
0.317811
0.31782
0.317895
0.318018
0.31817
0.318332
0.318488
0.318627
0.318744
0.318834
0.318899
0.318941
0.318966
0.318976
0.318978
0.318973
0.318966
0.318958
0.31895
0.318944
0.318941
0.318943
0.318953
0.318975
0.319022
0.319115
0.319303
0.319696
0.320551
0.322522
0.327325
0.337846
0.351658
0.358461
0.35801
0.357171
0.356585
0.356086
0.337301
0.33581
0.334384
0.333016
0.331704
0.330444
0.329233
0.328067
0.326947
0.32587
0.324838
0.323851
0.322914
0.322031
0.321209
0.320458
0.319786
0.319202
0.318717
0.318335
0.318059
0.317887
0.317811
0.31782
0.317895
0.318018
0.31817
0.318332
0.318488
0.318627
0.318744
0.318834
0.318899
0.318941
0.318966
0.318976
0.318978
0.318973
0.318966
0.318957
0.31895
0.318944
0.318941
0.318942
0.31895
0.31897
0.319012
0.319096
0.319264
0.319614
0.320369
0.322093
0.326279
0.335783
0.349737
0.35825
0.357602
0.357256
0.356835
0.356071
0.337301
0.33581
0.334384
0.333016
0.331704
0.330444
0.329233
0.328067
0.326947
0.32587
0.324838
0.323851
0.322914
0.322031
0.321209
0.320458
0.319786
0.319202
0.318717
0.318335
0.318059
0.317887
0.317811
0.31782
0.317895
0.318018
0.31817
0.318332
0.318488
0.318627
0.318744
0.318834
0.318899
0.318941
0.318966
0.318976
0.318978
0.318973
0.318966
0.318957
0.31895
0.318943
0.31894
0.31894
0.318947
0.318965
0.319002
0.319076
0.319225
0.319532
0.320189
0.321674
0.325254
0.333637
0.347416
0.357495
0.357478
0.357432
0.35697
0.356009
0.337301
0.33581
0.334384
0.333016
0.331704
0.330444
0.329233
0.328067
0.326947
0.32587
0.324838
0.323851
0.322914
0.322031
0.321209
0.320458
0.319786
0.319202
0.318717
0.318335
0.318059
0.317887
0.317811
0.31782
0.317895
0.318018
0.31817
0.318332
0.318488
0.318627
0.318744
0.318834
0.318899
0.318941
0.318966
0.318976
0.318978
0.318973
0.318966
0.318957
0.318949
0.318943
0.318939
0.318939
0.318944
0.31896
0.318992
0.319057
0.319187
0.319453
0.320018
0.321278
0.324283
0.331487
0.344677
0.356198
0.357597
0.357556
0.357066
0.355889
0.337301
0.33581
0.334384
0.333016
0.331704
0.330444
0.329233
0.328067
0.326947
0.32587
0.324838
0.323851
0.322914
0.322031
0.321209
0.320458
0.319786
0.319202
0.318717
0.318335
0.318059
0.317887
0.317811
0.31782
0.317895
0.318018
0.31817
0.318332
0.318488
0.318627
0.318744
0.318834
0.318899
0.318941
0.318966
0.318976
0.318977
0.318973
0.318965
0.318957
0.318949
0.318943
0.318939
0.318938
0.318942
0.318955
0.318983
0.319039
0.31915
0.319378
0.319857
0.320912
0.323392
0.329422
0.341571
0.354322
0.357714
0.35761
0.357051
0.355855
0.337301
0.33581
0.334384
0.333016
0.331704
0.330444
0.329233
0.328067
0.326947
0.32587
0.324838
0.323851
0.322914
0.322031
0.321209
0.320458
0.319786
0.319202
0.318717
0.318335
0.318059
0.317887
0.317811
0.31782
0.317895
0.318018
0.31817
0.318332
0.318488
0.318627
0.318744
0.318834
0.318899
0.318941
0.318966
0.318976
0.318977
0.318973
0.318965
0.318957
0.318949
0.318942
0.318938
0.318936
0.318939
0.31895
0.318973
0.319021
0.319116
0.319308
0.319709
0.320581
0.322599
0.32752
0.338228
0.351816
0.35778
0.357527
0.356888
0.355972
0.337301
0.33581
0.334384
0.333016
0.331704
0.330444
0.329233
0.328067
0.326947
0.32587
0.324838
0.323851
0.322914
0.322031
0.321209
0.320458
0.319786
0.319202
0.318717
0.318335
0.318059
0.317887
0.317811
0.31782
0.317895
0.318018
0.31817
0.318332
0.318488
0.318627
0.318744
0.318834
0.318899
0.318941
0.318966
0.318976
0.318977
0.318973
0.318965
0.318957
0.318949
0.318942
0.318937
0.318935
0.318937
0.318945
0.318965
0.319005
0.319085
0.319245
0.319575
0.320286
0.321903
0.325825
0.33486
0.34866
0.357519
0.357038
0.356752
0.356273
0.337301
0.33581
0.334384
0.333016
0.331704
0.330444
0.329233
0.328067
0.326947
0.32587
0.324838
0.323851
0.322914
0.322031
0.321209
0.320458
0.319786
0.319202
0.318717
0.318335
0.318059
0.317887
0.317811
0.31782
0.317895
0.318018
0.31817
0.318332
0.318488
0.318627
0.318744
0.318834
0.318899
0.318941
0.318966
0.318976
0.318977
0.318973
0.318965
0.318957
0.318949
0.318942
0.318937
0.318934
0.318935
0.318941
0.318957
0.318991
0.319057
0.319188
0.319458
0.32003
0.32131
0.32437
0.331694
0.344878
0.355995
0.356882
0.356899
0.356419
0.337301
0.33581
0.334384
0.333016
0.331704
0.330444
0.329233
0.328067
0.326947
0.32587
0.324838
0.323851
0.322914
0.322031
0.321209
0.320458
0.319786
0.319202
0.318717
0.318335
0.318059
0.317887
0.317811
0.31782
0.317895
0.318018
0.31817
0.318332
0.318488
0.318627
0.318744
0.318834
0.318899
0.318941
0.318966
0.318976
0.318977
0.318973
0.318965
0.318957
0.318949
0.318942
0.318936
0.318933
0.318933
0.318938
0.318951
0.318978
0.319032
0.319139
0.319356
0.319812
0.320815
0.323166
0.328893
0.340649
0.353451
0.357036
0.356982
0.356354
0.337301
0.33581
0.334384
0.333016
0.331704
0.330444
0.329233
0.328067
0.326947
0.32587
0.324838
0.323851
0.322914
0.322031
0.321209
0.320458
0.319786
0.319202
0.318717
0.318335
0.318059
0.317887
0.317811
0.31782
0.317895
0.318018
0.31817
0.318332
0.318488
0.318627
0.318744
0.318834
0.318899
0.318941
0.318966
0.318976
0.318977
0.318973
0.318965
0.318957
0.318948
0.318941
0.318936
0.318932
0.318932
0.318935
0.318945
0.318966
0.31901
0.319096
0.319269
0.319628
0.320406
0.322188
0.326531
0.336299
0.349957
0.357066
0.356831
0.356023
0.337301
0.33581
0.334384
0.333016
0.331704
0.330444
0.329233
0.328067
0.326947
0.32587
0.324838
0.323851
0.322914
0.322031
0.321209
0.320458
0.319786
0.319202
0.318717
0.318335
0.318059
0.317887
0.317811
0.31782
0.317895
0.318018
0.31817
0.318332
0.318488
0.318627
0.318744
0.318834
0.318899
0.318941
0.318966
0.318976
0.318977
0.318973
0.318965
0.318957
0.318948
0.318941
0.318936
0.318932
0.31893
0.318932
0.31894
0.318956
0.318991
0.319059
0.319196
0.319475
0.320071
0.321408
0.324618
0.332252
0.345558
0.356199
0.35617
0.355866
0.337301
0.33581
0.334384
0.333016
0.331704
0.330444
0.329233
0.328067
0.326947
0.32587
0.324838
0.323851
0.322914
0.322031
0.321209
0.320458
0.319786
0.319202
0.318717
0.318335
0.318059
0.317887
0.317811
0.31782
0.317895
0.318018
0.31817
0.318332
0.318488
0.318628
0.318744
0.318834
0.318899
0.318941
0.318966
0.318976
0.318977
0.318973
0.318965
0.318957
0.318948
0.318941
0.318935
0.318931
0.318929
0.31893
0.318935
0.318948
0.318975
0.319029
0.319135
0.319351
0.319804
0.320799
0.323133
0.328822
0.340537
0.353283
0.356131
0.355782
0.337301
0.33581
0.334384
0.333016
0.331704
0.330444
0.329233
0.328067
0.326947
0.32587
0.324838
0.323851
0.322914
0.322031
0.321209
0.320458
0.319786
0.319202
0.318717
0.318335
0.318059
0.317887
0.317811
0.31782
0.317895
0.318019
0.31817
0.318332
0.318488
0.318628
0.318744
0.318834
0.318899
0.318941
0.318966
0.318976
0.318977
0.318973
0.318965
0.318957
0.318948
0.318941
0.318935
0.318931
0.318928
0.318928
0.318932
0.318941
0.318962
0.319003
0.319085
0.31925
0.319591
0.320325
0.322004
0.326094
0.335454