/*--------------------------------*- C++ -*----------------------------------*\
  =========                 |
  \\      /  F ield         | OpenFOAM: The Open Source CFD Toolbox
   \\    /   O peration     | Website:  https://openfoam.org
    \\  /    A nd           | Version:  9
     \\/     M anipulation  |
\*---------------------------------------------------------------------------*/
FoamFile
{
    format      ascii;
    class       volScalarField;
    location    "0.004";
    object      p;
}
// * * * * * * * * * * * * * * * * * * * * * * * * * * * * * * * * * * * * * //

dimensions      [1 -1 -2 0 0 0 0];

internalField   nonuniform List<scalar> 
36400
(
2
2
2
2
2
2
2
2
2
2
2
2
2
2
2
2
2
2
2
2
2
2
2
2
2
2
2
2
2
2
2
2
2
2
2
2
2
2
2
2
2
2
2
2
2
2
2
2
2.00001
2.00001
2.00002
2.00004
2.00007
2.00014
2.00027
2.00055
2.0011
2.0022
2.00443
2.00891
2
2
2
2
2
2
2
2
2
2
2
2
2
2
2
2
2
2
2
2
2
2
2
2
2
2
2
2
2
2
2
2
2
2
2
2
2
2
2
2
2
2
2
2
2
2
2
2
2.00001
2.00001
2.00002
2.00004
2.00008
2.00016
2.00032
2.00063
2.00126
2.00253
2.00507
2.01018
2
2
2
2
2
2
2
2
2
2
2
2
2
2
2
2
2
2
2
2
2
2
2
2
2
2
2
2
2
2
2
2
2
2
2
2
2
2
2
2
2
2
2
2
2
2
2
2
2.00001
2.00001
2.00003
2.00005
2.0001
2.00021
2.00041
2.00082
2.00165
2.0033
2.00662
2.01327
2
2
2
2
2
2
2
2
2
2
2
2
2
2
2
2
2
2
2
2
2
2
2
2
2
2
2
2
2
2
2
2
2
2
2
2
2
2
2
2
2
2
2
2
2
2
2
2.00001
2.00001
2.00002
2.00004
2.00007
2.00015
2.00029
2.00058
2.00116
2.00233
2.00467
2.00936
2.01881
2
2
2
2
2
2
2
2
2
2
2
2
2
2
2
2
2
2
2
2
2
2
2
2
2
2
2
2
2
2
2
2
2
2
2
2
2
2
2
2
2
2
2
2
2
2
2
2.00001
2.00001
2.00003
2.00005
2.00011
2.00022
2.00043
2.00087
2.00174
2.00349
2.00701
2.01407
2.02832
2
2
2
2
2
2
2
2
2
2
2
2
2
2
2
2
2
2
2
2
2
2
2
2
2
2
2
2
2
2
2
2
2
2
2
2
2
2
2
2
2
2
2
2
2
2
2.00001
2.00001
2.00002
2.00004
2.00008
2.00017
2.00034
2.00067
2.00135
2.0027
2.00542
2.01089
2.02187
2.04405
2
2
2
2
2
2
2
2
2
2
2
2
2
2
2
2
2
2
2
2
2
2
2
2
2
2
2
2
2
2
2
2
2
2
2
2
2
2
2
2
2
2
2
2
2
2.00001
2.00001
2.00002
2.00003
2.00007
2.00013
2.00026
2.00053
2.00106
2.00212
2.00425
2.00852
2.01711
2.03442
2.06947
2
2
2
2
2
2
2
2
2
2
2
2
2
2
2
2
2
2
2
2
2
2
2
2
2
2
2
2
2
2
2
2
2
2
2
2
2
2
2
2
2
2
2
2
2
2.00001
2.00001
2.00003
2.00005
2.0001
2.00021
2.00041
2.00082
2.00165
2.00331
2.00664
2.01334
2.0268
2.05399
2.10936
2
2
2
2
2
2
2
2
2
2
2
2
2
2
2
2
2
2
2
2
2
2
2
2
2
2
2
2
2
2
2
2
2
2
2
2
2
2
2
2
2
2
2
2
2.00001
2.00001
2.00002
2.00004
2.00008
2.00016
2.00032
2.00063
2.00127
2.00254
2.00508
2.01019
2.02046
2.04115
2.08304
2.16851
2
2
2
2
2
2
2
2
2
2
2
2
2
2
2
2
2
2
2
2
2
2
2
2
2
2
2
2
2
2
2
2
2
2
2
2
2
2
2
2
2
2
2
2
2.00001
2.00002
2.00003
2.00006
2.00012
2.00024
2.00047
2.00095
2.00189
2.00379
2.00758
2.01516
2.03036
2.06093
2.12278
2.24824
2
2
2
2
2
2
2
2
2
2
2
2
2
2
2
2
2
2
2
2
2
2
2
2
2
2
2
2
2
2
2
2
2
2
2
2
2
2
2
2
2
2
2
2.00001
2.00001
2.00002
2.00004
2.00009
2.00017
2.00034
2.00069
2.00137
2.00273
2.00543
2.01079
2.02153
2.04304
2.08625
2.17301
2.34604
2
2
2
2
2
2
2
2
2
2
2
2
2
2
2
2
2
2
2
2
2
2
2
2
2
2
2
2
2
2
2
2
2
2
2
2
2
2
2
2
2
2
2.00001
2.00001
2.00002
2.00003
2.00006
2.00012
2.00025
2.00049
2.00097
2.00193
2.00382
2.00754
2.01494
2.02974
2.05948
2.11936
2.23556
2.45729
2
2
2
2
2
2
2
2
2
2
2
2
2
2
2
2
2
2
2
2
2
2
2
2
2
2
2
2
2
2
2
2
2
2
2
2
2
2
2
2
2
2
2.00001
2.00001
2.00002
2.00004
2.00009
2.00017
2.00034
2.00068
2.00134
2.00266
2.00523
2.01032
2.02052
2.04096
2.08209
2.1651
2.31135
2.50149
2
2
2
2
2
2
2
2
2
2
2
2
2
2
2
2
2
2
2
2
2
2
2
2
2
2
2
2
2
2
2
2
2
2
2
2
2
2
2
2
2
2.00001
2.00001
2.00002
2.00003
2.00006
2.00012
2.00024
2.00047
2.00093
2.00183
2.0036
2.00706
2.01397
2.02782
2.05558
2.11123
2.22262
2.40098
2.49982
2
2
2
2
2
2
2
2
2
2
2
2
2
2
2
2
2
2
2
2
2
2
2
2
2
2
2
2
2
2
2
2
2
2
2
2
2
2
2
2
2
2.00001
2.00001
2.00002
2.00004
2.00008
2.00016
2.00032
2.00063
2.00124
2.00245
2.00478
2.00938
2.01857
2.03697
2.0739
2.14802
2.28816
2.49331
2.50119
2
2
2
2
2
2
2
2
2
2
2
2
2
2
2
2
2
2
2
2
2
2
2
2
2
2
2
2
2
2
2
2
2
2
2
2
2
2
2
2
2.00001
2.00001
2.00002
2.00003
2.00006
2.00011
2.00021
2.00042
2.00084
2.00164
2.00321
2.00626
2.01231
2.02443
2.04871
2.09749
2.19545
2.35903
2.5239
2.51493
2
2
2
2
2
2
2
2
2
2
2
2
2
2
2
2
2
2
2
2
2
2
2
2
2
2
2
2
2
2
2
2
2
2
2
2
2
2
2
2
2.00001
2.00001
2.00002
2.00004
2.00007
2.00014
2.00028
2.00055
2.00109
2.00213
2.00414
2.00807
2.01593
2.03167
2.06321
2.12642
2.25196
2.43486
2.52224
2.51374
2
2
2
2
2
2
2
2
2
2
2
2
2
2
2
2
2
2
2
2
2
2
2
2
2
2
2
2
2
2
2
2
2
2
2
2
2
2
2
2.00001
2.00001
2.00001
2.00003
2.00005
2.00009
2.00018
2.00036
2.00071
2.00139
2.00271
2.00526
2.01028
2.02032
2.04045
2.08084
2.16187
2.31294
2.5087
2.51721
2.50638
2
2
2
2
2
2
2
2
2
2
2
2
2
2
2
2
2
2
2
2
2
2
2
2
2
2
2
2
2
2
2
2
2
2
2
2
2
2
2
2.00001
2.00001
2.00002
2.00003
2.00006
2.00012
2.00023
2.00046
2.0009
2.00176
2.0034
2.00659
2.01293
2.02563
2.05109
2.1022
2.20468
2.37554
2.53865
2.5291
2.50108
2
2
2
2
2
2
2
2
2
2
2
2
2
2
2
2
2
2
2
2
2
2
2
2
2
2
2
2
2
2
2
2
2
2
2
2
2
2
2.00001
2.00001
2.00001
2.00002
2.00004
2.00008
2.00015
2.00029
2.00057
2.00112
2.00217
2.0042
2.00815
2.01604
2.03186
2.06357
2.12715
2.25354
2.43897
2.53982
2.52964
2.50321
2
2
2
2
2
2
2
2
2
2
2
2
2
2
2
2
2
2
2
2
2
2
2
2
2
2
2
2
2
2
2
2
2
2
2
2
2
2
2.00001
2.00001
2.00002
2.00003
2.00005
2.0001
2.00018
2.00036
2.00071
2.00137
2.00265
2.00511
2.00995
2.01963
2.03904
2.07798
2.1561
2.30508
2.49775
2.53287
2.52322
2.49892
2
2
2
2
2
2
2
2
2
2
2
2
2
2
2
2
2
2
2
2
2
2
2
2
2
2
2
2
2
2
2
2
2
2
2
2
2
2.00001
2.00001
2.00001
2.00002
2.00003
2.00006
2.00012
2.00022
2.00044
2.00085
2.00165
2.00318
2.00614
2.012
2.02373
2.04725
2.09449
2.18924
2.35637
2.54188
2.53152
2.51446
2.48864
2
2
2
2
2
2
2
2
2
2
2
2
2
2
2
2
2
2
2
2
2
2
2
2
2
2
2
2
2
2
2
2
2
2
2
2
2
2.00001
2.00001
2.00001
2.00002
2.00004
2.00007
2.00014
2.00027
2.00052
2.00102
2.00196
2.00377
2.00727
2.01428
2.0283
2.05643
2.11287
2.22586
2.40658
2.55338
2.54206
2.51262
2.47311
2
2
2
2
2
2
2
2
2
2
2
2
2
2
2
2
2
2
2
2
2
2
2
2
2
2
2
2
2
2
2
2
2
2
2
2
2
2.00001
2.00001
2.00002
2.00003
2.00005
2.00008
2.00016
2.00032
2.00061
2.00119
2.00229
2.0044
2.00852
2.01676
2.03326
2.06635
2.13276
2.26443
2.45437
2.5532
2.54227
2.51379
2.46216
2
2
2
2
2
2
2
2
2
2
2
2
2
2
2
2
2
2
2
2
2
2
2
2
2
2
2
2
2
2
2
2
2
2
2
2
2
2.00001
2.00001
2.00002
2.00003
2.00005
2.0001
2.00019
2.00037
2.00071
2.00138
2.00264
2.00507
2.00984
2.0194
2.03856
2.07699
2.15411
2.30271
2.49676
2.54894
2.5386
2.51195
2.45667
2
2
2
2
2
2
2
2
2
2
2
2
2
2
2
2
2
2
2
2
2
2
2
2
2
2
2
2
2
2
2
2
2
2
2
2
2.00001
2.00001
2.00001
2.00002
2.00003
2.00006
2.00011
2.00022
2.00042
2.00081
2.00157
2.003
2.00576
2.01123
2.02217
2.0441
2.08816
2.17653
2.33927
2.53101
2.54293
2.53289
2.50712
2.45524
2
2
2
2
2
2
2
2
2
2
2
2
2
2
2
2
2
2
2
2
2
2
2
2
2
2
2
2
2
2
2
2
2
2
2
2
2.00001
2.00001
2.00001
2.00002
2.00004
2.00007
2.00013
2.00024
2.00047
2.00092
2.00176
2.00337
2.00647
2.01264
2.025
2.04978
2.09956
2.19935
2.37296
2.55427
2.5428
2.52567
2.50103
2.45351
2
2
2
2
2
2
2
2
2
2
2
2
2
2
2
2
2
2
2
2
2
2
2
2
2
2
2
2
2
2
2
2
2
2
2
2
2.00001
2.00001
2.00001
2.00002
2.00004
2.00007
2.00014
2.00027
2.00053
2.00102
2.00195
2.00373
2.00717
2.01405
2.02782
2.05543
2.11088
2.22189
2.40365
2.56302
2.55202
2.52026
2.49156
2.45139
2
2
2
2
2
2
2
2
2
2
2
2
2
2
2
2
2
2
2
2
2
2
2
2
2
2
2
2
2
2
2
2
2
2
2
2
2.00001
2.00001
2.00002
2.00003
2.00004
2.00008
2.00015
2.0003
2.00058
2.00111
2.00213
2.00407
2.00785
2.0154
2.03052
2.06086
2.12174
2.24335
2.43098
2.56674
2.55404
2.52152
2.48292
2.44905
2
2
2
2
2
2
2
2
2
2
2
2
2
2
2
2
2
2
2
2
2
2
2
2
2
2
2
2
2
2
2
2
2
2
2
2.00001
2.00001
2.00001
2.00002
2.00003
2.00005
2.00009
2.00017
2.00032
2.00062
2.0012
2.0023
2.00439
2.00848
2.01667
2.03305
2.0659
2.13188
2.26289
2.45448
2.56726
2.55473
2.52238
2.47634
2.44677
2
2
2
2
2
2
2
2
2
2
2
2
2
2
2
2
2
2
2
2
2
2
2
2
2
2
2
2
2
2
2
2
2
2
2
2.00001
2.00001
2.00001
2.00002
2.00003
2.00005
2.00009
2.00018
2.00035
2.00067
2.00128
2.00245
2.00468
2.00905
2.0178
2.03531
2.07045
2.14096
2.27985
2.47387
2.56643
2.55423
2.52272
2.47173
2.44474
2
2
2
2
2
2
2
2
2
2
2
2
2
2
2
2
2
2
2
2
2
2
2
2
2
2
2
2
2
2
2
2
2
2
2
2.00001
2.00001
2.00001
2.00002
2.00003
2.00005
2.0001
2.00019
2.00036
2.0007
2.00135
2.00258
2.00492
2.00953
2.01876
2.03723
2.07431
2.14871
2.2938
2.48907
2.5651
2.55321
2.52262
2.46864
2.44309
2
2
2
2
2
2
2
2
2
2
2
2
2
2
2
2
2
2
2
2
2
2
2
2
2
2
2
2
2
2
2
2
2
2
2
2.00001
2.00001
2.00001
2.00002
2.00003
2.00006
2.0001
2.0002
2.00038
2.00073
2.0014
2.00268
2.00512
2.00991
2.01951
2.03874
2.07735
2.15481
2.30446
2.50022
2.56376
2.55212
2.52229
2.46665
2.44187
2
2
2
2
2
2
2
2
2
2
2
2
2
2
2
2
2
2
2
2
2
2
2
2
2
2
2
2
2
2
2
2
2
2
2
2.00001
2.00001
2.00001
2.00002
2.00003
2.00006
2.00011
2.0002
2.00039
2.00075
2.00144
2.00275
2.00525
2.01017
2.02003
2.03979
2.07945
2.15903
2.31169
2.50753
2.56277
2.55131
2.52196
2.46552
2.44107
2
2
2
2
2
2
2
2
2
2
2
2
2
2
2
2
2
2
2
2
2
2
2
2
2
2
2
2
2
2
2
2
2
2
2
2.00001
2.00001
2.00001
2.00002
2.00003
2.00006
2.00011
2.0002
2.00039
2.00076
2.00146
2.00278
2.00531
2.0103
2.02029
2.04031
2.08049
2.16112
2.31519
2.51093
2.56234
2.55094
2.52178
2.46505
2.44072
2
2
2
2
2
2
2
2
2
2
2
2
2
2
2
2
2
2
2
2
2
2
2
2
2
2
2
2
2
2
2
2
2
2
2
2.00001
2.00001
2.00001
2.00002
2.00003
2.00006
2.00011
2.0002
2.00039
2.00076
2.00146
2.00278
2.00531
2.0103
2.02029
2.0403
2.08049
2.16112
2.31518
2.51092
2.56234
2.55095
2.52179
2.46506
2.44073
2
2
2
2
2
2
2
2
2
2
2
2
2
2
2
2
2
2
2
2
2
2
2
2
2
2
2
2
2
2
2
2
2
2
2
2.00001
2.00001
2.00001
2.00002
2.00003
2.00006
2.00011
2.0002
2.00039
2.00075
2.00144
2.00275
2.00525
2.01017
2.02003
2.03978
2.07944
2.15902
2.31167
2.50751
2.56278
2.55132
2.52198
2.46555
2.44109
2
2
2
2
2
2
2
2
2
2
2
2
2
2
2
2
2
2
2
2
2
2
2
2
2
2
2
2
2
2
2
2
2
2
2
2.00001
2.00001
2.00001
2.00002
2.00003
2.00006
2.0001
2.0002
2.00038
2.00073
2.0014
2.00268
2.00512
2.00991
2.01951
2.03874
2.07734
2.15479
2.30443
2.50018
2.56378
2.55215
2.52232
2.46669
2.4419
2
2
2
2
2
2
2
2
2
2
2
2
2
2
2
2
2
2
2
2
2
2
2
2
2
2
2
2
2
2
2
2
2
2
2
2.00001
2.00001
2.00001
2.00002
2.00003
2.00005
2.0001
2.00019
2.00036
2.0007
2.00135
2.00258
2.00493
2.00953
2.01876
2.03723
2.0743
2.14869
2.29376
2.48903
2.56513
2.55324
2.52265
2.46869
2.44313
2
2
2
2
2
2
2
2
2
2
2
2
2
2
2
2
2
2
2
2
2
2
2
2
2
2
2
2
2
2
2
2
2
2
2
2.00001
2.00001
2.00001
2.00002
2.00003
2.00005
2.00009
2.00018
2.00035
2.00067
2.00128
2.00245
2.00468
2.00905
2.0178
2.03531
2.07044
2.14094
2.2798
2.47382
2.56647
2.55427
2.52275
2.47177
2.44477
2
2
2
2
2
2
2
2
2
2
2
2
2
2
2
2
2
2
2
2
2
2
2
2
2
2
2
2
2
2
2
2
2
2
2
2.00001
2.00001
2.00001
2.00002
2.00003
2.00005
2.00009
2.00017
2.00032
2.00062
2.0012
2.0023
2.0044
2.00848
2.01666
2.03304
2.06589
2.13185
2.26284
2.45445
2.56731
2.55477
2.52241
2.47637
2.44678
2
2
2
2
2
2
2
2
2
2
2
2
2
2
2
2
2
2
2
2
2
2
2
2
2
2
2
2
2
2
2
2
2
2
2
2
2.00001
2.00001
2.00002
2.00003
2.00004
2.00008
2.00015
2.0003
2.00058
2.00111
2.00213
2.00407
2.00785
2.01539
2.03052
2.06085
2.12172
2.24331
2.43095
2.5668
2.55409
2.52155
2.48293
2.44905
2
2
2
2
2
2
2
2
2
2
2
2
2
2
2
2
2
2
2
2
2
2
2
2
2
2
2
2
2
2
2
2
2
2
2
2
2.00001
2.00001
2.00001
2.00002
2.00004
2.00007
2.00014
2.00027
2.00053
2.00102
2.00195
2.00373
2.00717
2.01404
2.02781
2.05542
2.11086
2.22185
2.40362
2.56308
2.55207
2.52029
2.49157
2.45138
2
2
2
2
2
2
2
2
2
2
2
2
2
2
2
2
2
2
2
2
2
2
2
2
2
2
2
2
2
2
2
2
2
2
2
2
2.00001
2.00001
2.00001
2.00002
2.00004
2.00007
2.00013
2.00024
2.00047
2.00092
2.00176
2.00337
2.00647
2.01264
2.025
2.04978
2.09955
2.19932
2.37294
2.55431
2.54283
2.5257
2.50104
2.45349
2
2
2
2
2
2
2
2
2
2
2
2
2
2
2
2
2
2
2
2
2
2
2
2
2
2
2
2
2
2
2
2
2
2
2
2
2.00001
2.00001
2.00001
2.00002
2.00003
2.00006
2.00011
2.00022
2.00042
2.00081
2.00157
2.003
2.00576
2.01123
2.02217
2.0441
2.08815
2.17651
2.33925
2.53101
2.54295
2.53291
2.50712
2.45522
2
2
2
2
2
2
2
2
2
2
2
2
2
2
2
2
2
2
2
2
2
2
2
2
2
2
2
2
2
2
2
2
2
2
2
2
2
2.00001
2.00001
2.00002
2.00003
2.00005
2.0001
2.00019
2.00037
2.00071
2.00138
2.00264
2.00507
2.00985
2.0194
2.03856
2.07699
2.15411
2.3027
2.49675
2.54895
2.5386
2.51195
2.45666
2
2
2
2
2
2
2
2
2
2
2
2
2
2
2
2
2
2
2
2
2
2
2
2
2
2
2
2
2
2
2
2
2
2
2
2
2
2.00001
2.00001
2.00002
2.00003
2.00005
2.00008
2.00016
2.00032
2.00061
2.00119
2.00229
2.0044
2.00852
2.01676
2.03326
2.06635
2.13277
2.26444
2.45437
2.55317
2.54225
2.51378
2.46215
2
2
2
2
2
2
2
2
2
2
2
2
2
2
2
2
2
2
2
2
2
2
2
2
2
2
2
2
2
2
2
2
2
2
2
2
2
2.00001
2.00001
2.00001
2.00002
2.00004
2.00007
2.00014
2.00027
2.00052
2.00102
2.00196
2.00377
2.00727
2.01428
2.02831
2.05643
2.11289
2.22589
2.4066
2.55334
2.54202
2.5126
2.47309
2
2
2
2
2
2
2
2
2
2
2
2
2
2
2
2
2
2
2
2
2
2
2
2
2
2
2
2
2
2
2
2
2
2
2
2
2
2
2.00001
2.00001
2.00002
2.00003
2.00006
2.00012
2.00022
2.00044
2.00085
2.00165
2.00318
2.00614
2.012
2.02374
2.04726
2.09451
2.18927
2.3564
2.54183
2.53147
2.51441
2.48862
2
2
2
2
2
2
2
2
2
2
2
2
2
2
2
2
2
2
2
2
2
2
2
2
2
2
2
2
2
2
2
2
2
2
2
2
2
2
2.00001
2.00001
2.00002
2.00003
2.00005
2.00009
2.00018
2.00036
2.00071
2.00137
2.00265
2.00511
2.00995
2.01964
2.03905
2.078
2.15613
2.30512
2.49775
2.53281
2.52316
2.49889
2
2
2
2
2
2
2
2
2
2
2
2
2
2
2
2
2
2
2
2
2
2
2
2
2
2
2
2
2
2
2
2
2
2
2
2
2
2
2.00001
2.00001
2.00001
2.00002
2.00004
2.00008
2.00015
2.00029
2.00057
2.00112
2.00217
2.0042
2.00815
2.01605
2.03186
2.06358
2.12717
2.25359
2.439
2.53975
2.52958
2.50316
2
2
2
2
2
2
2
2
2
2
2
2
2
2
2
2
2
2
2
2
2
2
2
2
2
2
2
2
2
2
2
2
2
2
2
2
2
2
2
2.00001
2.00001
2.00002
2.00003
2.00006
2.00012
2.00023
2.00046
2.0009
2.00176
2.0034
2.00659
2.01294
2.02564
2.0511
2.10222
2.20471
2.37558
2.5386
2.52905
2.50105
2
2
2
2
2
2
2
2
2
2
2
2
2
2
2
2
2
2
2
2
2
2
2
2
2
2
2
2
2
2
2
2
2
2
2
2
2
2
2
2.00001
2.00001
2.00001
2.00003
2.00005
2.00009
2.00018
2.00036
2.00071
2.00139
2.00271
2.00526
2.01028
2.02032
2.04045
2.08085
2.16189
2.31297
2.50871
2.51716
2.50633
2
2
2
2
2
2
2
2
2
2
2
2
2
2
2
2
2
2
2
2
2
2
2
2
2
2
2
2
2
2
2
2
2
2
2
2
2
2
2
2
2.00001
2.00001
2.00002
2.00004
2.00007
2.00014
2.00028
2.00055
2.00109
2.00213
2.00414
2.00807
2.01593
2.03167
2.06322
2.12643
2.25198
2.43487
2.52219
2.5137
2
2
2
2
2
2
2
2
2
2
2
2
2
2
2
2
2
2
2
2
2
2
2
2
2
2
2
2
2
2
2
2
2
2
2
2
2
2
2
2
2.00001
2.00001
2.00002
2.00003
2.00006
2.00011
2.00021
2.00042
2.00083
2.00164
2.00321
2.00626
2.01231
2.02443
2.04872
2.09749
2.19546
2.35902
2.52386
2.51489
2
2
2
2
2
2
2
2
2
2
2
2
2
2
2
2
2
2
2
2
2
2
2
2
2
2
2
2
2
2
2
2
2
2
2
2
2
2
2
2
2
2.00001
2.00001
2.00002
2.00004
2.00008
2.00016
2.00032
2.00063
2.00124
2.00244
2.00478
2.00938
2.01857
2.03697
2.07389
2.14801
2.28814
2.49329
2.50117
2
2
2
2
2
2
2
2
2
2
2
2
2
2
2
2
2
2
2
2
2
2
2
2
2
2
2
2
2
2
2
2
2
2
2
2
2
2
2
2
2
2.00001
2.00001
2.00002
2.00003
2.00006
2.00012
2.00024
2.00047
2.00093
2.00183
2.0036
2.00706
2.01397
2.02782
2.05557
2.11121
2.22258
2.40093
2.4998
2
2
2
2
2
2
2
2
2
2
2
2
2
2
2
2
2
2
2
2
2
2
2
2
2
2
2
2
2
2
2
2
2
2
2
2
2
2
2
2
2
2
2.00001
2.00001
2.00002
2.00004
2.00009
2.00017
2.00034
2.00068
2.00135
2.00266
2.00523
2.01033
2.02052
2.04095
2.08207
2.16505
2.31126
2.50148
2
2
2
2
2
2
2
2
2
2
2
2
2
2
2
2
2
2
2
2
2
2
2
2
2
2
2
2
2
2
2
2
2
2
2
2
2
2
2
2
2
2
2
2.00001
2.00002
2.00003
2.00006
2.00012
2.00024
2.00049
2.00097
2.00193
2.00382
2.00754
2.01493
2.02973
2.05945
2.1193
2.23545
2.45725
2
2
2
2
2
2
2
2
2
2
2
2
2
2
2
2
2
2
2
2
2
2
2
2
2
2
2
2
2
2
2
2
2
2
2
2
2
2
2
2
2
2
2
2.00001
2.00001
2.00002
2.00004
2.00009
2.00017
2.00034
2.00069
2.00137
2.00273
2.00543
2.01079
2.02152
2.04302
2.0862
2.1729
2.34594
2
2
2
2
2
2
2
2
2
2
2
2
2
2
2
2
2
2
2
2
2
2
2
2
2
2
2
2
2
2
2
2
2
2
2
2
2
2
2
2
2
2
2
2
2.00001
2.00002
2.00003
2.00006
2.00012
2.00024
2.00047
2.00095
2.00189
2.00378
2.00757
2.01515
2.03034
2.06088
2.12271
2.2481
2
2
2
2
2
2
2
2
2
2
2
2
2
2
2
2
2
2
2
2
2
2
2
2
2
2
2
2
2
2
2
2
2
2
2
2
2
2
2
2
2
2
2
2
2.00001
2.00001
2.00002
2.00004
2.00008
2.00016
2.00032
2.00063
2.00126
2.00253
2.00508
2.01019
2.02045
2.04109
2.08294
2.1684
2
2
2
2
2
2
2
2
2
2
2
2
2
2
2
2
2
2
2
2
2
2
2
2
2
2
2
2
2
2
2
2
2
2
2
2
2
2
2
2
2
2
2
2
2
2.00001
2.00001
2.00003
2.00005
2.0001
2.00021
2.00041
2.00082
2.00165
2.00331
2.00664
2.01332
2.02678
2.05395
2.10921
2
2
2
2
2
2
2
2
2
2
2
2
2
2
2
2
2
2
2
2
2
2
2
2
2
2
2
2
2
2
2
2
2
2
2
2
2
2
2
2
2
2
2
2
2
2.00001
2.00001
2.00002
2.00003
2.00007
2.00013
2.00026
2.00053
2.00105
2.00211
2.00424
2.00851
2.01709
2.03437
2.06937
2
2
2
2
2
2
2
2
2
2
2
2
2
2
2
2
2
2
2
2
2
2
2
2
2
2
2
2
2
2
2
2
2
2
2
2
2
2
2
2
2
2
2
2
2
2
2.00001
2.00001
2.00002
2.00004
2.00008
2.00017
2.00033
2.00067
2.00134
2.00269
2.0054
2.01085
2.02179
2.04393
2
2
2
2
2
2
2
2
2
2
2
2
2
2
2
2
2
2
2
2
2
2
2
2
2
2
2
2
2
2
2
2
2
2
2
2
2
2
2
2
2
2
2
2
2
2
2
2.00001
2.00001
2.00003
2.00005
2.00011
2.00021
2.00043
2.00086
2.00173
2.00348
2.00697
2.014
2.02818
2
2
2
2
2
2
2
2
2
2
2
2
2
2
2
2
2
2
2
2
2
2
2
2
2
2
2
2
2
2
2
2
2
2
2
2
2
2
2
2
2
2
2
2
2
2
2
2.00001
2.00001
2.00002
2.00004
2.00007
2.00014
2.00029
2.00057
2.00115
2.00231
2.00463
2.00929
2.01867
2
2
2
2
2
2
2
2
2
2
2
2
2
2
2
2
2
2
2
2
2
2
2
2
2
2
2
2
2
2
2
2
2
2
2
2
2
2
2
2
2
2
2
2
2
2
2
2
2.00001
2.00001
2.00003
2.00005
2.0001
2.0002
2.00041
2.00081
2.00163
2.00326
2.00654
2.01314
2
2
2
2
2
2
2
2
2
2
2
2
2
2
2
2
2
2
2
2
2
2
2
2
2
2
2
2
2
2
2
2
2
2
2
2
2
2
2
2
2
2
2
2
2
2
2
2
2.00001
2.00001
2.00002
2.00004
2.00008
2.00016
2.00031
2.00062
2.00125
2.0025
2.00501
2.01006
2
2
2
2
2
2
2
2
2
2
2
2
2
2
2
2
2
2
2
2
2
2
2
2
2
2
2
2
2
2
2
2
2
2
2
2
2
2
2
2
2
2
2
2
2
2
2
2
2.00001
2.00001
2.00002
2.00003
2.00007
2.00013
2.00027
2.00054
2.00109
2.00218
2.00439
2.00882
2.0228
2.03671
2.06473
2.1209
2.23218
2.41727
2.61318
2.71274
2.72629
2.72434
2.71795
2.70253
2.67034
2.62625
2.58269
2.54162
2.50948
2.48682
2.46482
2.44938
2.43075
2.40935
2.38614
2.36163
2.33611
2.30982
2.28303
2.25575
2.22797
2.19974
2.17118
2.14245
2.11368
2.08504
2.05668
2.02874
2.00114
1.97405
1.94766
1.92215
1.89769
1.87447
1.85257
1.83217
1.81331
1.79613
1.78073
1.7672
1.75559
1.7459
1.73807
1.73208
1.72797
1.72674
1.72686
1.72722
1.72812
1.73002
1.73244
1.73643
1.73841
1.74072
1.74558
1.74992
1.75531
1.7599
1.76374
1.76676
1.76897
1.76907
2.03355
2.05362
2.09443
2.177
2.33174
2.52097
2.65703
2.72603
2.72238
2.71692
2.70857
2.69053
2.6536
2.61094
2.5718
2.53657
2.50577
2.47886
2.4564
2.44096
2.42265
2.40197
2.3793
2.35526
2.33023
2.30445
2.27813
2.25132
2.22402
2.19628
2.16821
2.13997
2.11169
2.08349
2.05553
2.02787
2.00065
1.97398
1.94802
1.92292
1.89884
1.87596
1.85442
1.83425
1.8156
1.7986
1.78331
1.76983
1.75821
1.74844
1.74052
1.73439
1.73011
1.72841
1.72848
1.7288
1.72942
1.73096
1.73313
1.737
1.74039
1.74388
1.74733
1.75119
1.75556
1.75973
1.76345
1.76657
1.76932
1.76943
2.04918
2.07708
2.1338
2.2478
2.41914
2.55159
2.65287
2.71431
2.71059
2.70573
2.69752
2.67934
2.64235
2.60217
2.56448
2.5304
2.50062
2.47413
2.45182
2.435
2.41643
2.39606
2.3738
2.35016
2.3255
2.30006
2.27406
2.24757
2.22059
2.19317
2.16546
2.13759
2.10968
2.08186
2.05425
2.027
2.00022
1.97397
1.94842
1.92369
1.89995
1.87737
1.85609
1.83619
1.81773
1.80085
1.78568
1.77225
1.76065
1.75087
1.74289
1.7367
1.73234
1.73037
1.73044
1.73064
1.73132
1.7325
1.7343
1.73772
1.7421
1.74618
1.74983
1.75341
1.75723
1.76094
1.76435
1.76735
1.77027
1.77021
2.07311
2.11162
2.19012
2.33724
2.47284
2.56163
2.64892
2.70773
2.70339
2.69671
2.68726
2.6678
2.62934
2.59217
2.55586
2.52338
2.49457
2.46873
2.44661
2.42867
2.41007
2.39006
2.36822
2.34504
2.32077
2.2957
2.27006
2.24392
2.21727
2.19021
2.16285
2.13534
2.10781
2.08037
2.05315
2.02625
1.99981
1.97393
1.94872
1.92434
1.90092
1.87864
1.85762
1.83798
1.81977
1.80304
1.78797
1.77465
1.7631
1.75337
1.74538
1.73916
1.73477
1.73263
1.73269
1.73287
1.73357
1.73441
1.73594
1.73903
1.74359
1.74829
1.75247
1.75626
1.75997
1.76348
1.76659
1.76926
1.77212
1.77203
2.10997
2.16149
2.26642
2.41552
2.49383
2.56277
2.64367
2.69845
2.69414
2.68608
2.67568
2.655
2.61776
2.58255
2.54798
2.51702
2.48896
2.46357
2.44142
2.42257
2.40389
2.38409
2.36263
2.33986
2.316
2.29135
2.2661
2.2403
2.21399
2.18727
2.16026
2.13311
2.10595
2.07888
2.05202
2.02549
1.9994
1.97384
1.94896
1.92491
1.90181
1.87983
1.85908
1.83969
1.82173
1.80522
1.79025
1.77703
1.76559
1.75593
1.74801
1.74179
1.73742
1.73521
1.73525
1.7355
1.73609
1.7368
1.73816
1.741
1.7454
1.75039
1.75505
1.75921
1.76314
1.76678
1.76989
1.77237
1.77501
1.77487
2.16371
2.22623
2.35278
2.44879
2.49895
2.56187
2.63755
2.68711
2.68308
2.67445
2.66369
2.64272
2.60709
2.57358
2.54086
2.51113
2.48364
2.45853
2.43622
2.41665
2.39784
2.37819
2.35712
2.33478
2.31132
2.28706
2.26217
2.23672
2.21074
2.18435
2.15768
2.13088
2.10408
2.07736
2.05086
2.02467
1.99892
1.97371
1.94916
1.92542
1.90264
1.88094
1.86047
1.84134
1.82361
1.80737
1.79256
1.77941
1.7681
1.75856
1.75075
1.74461
1.74028
1.73808
1.73811
1.7384
1.73894
1.7396
1.74089
1.74356
1.74782
1.75281
1.75779
1.76226
1.76649
1.77042
1.77378
1.77635
1.77885
1.77867
2.23125
2.29027
2.40441
2.45945
2.49943
2.55859
2.62915
2.67385
2.67019
2.66196
2.65149
2.63119
2.59716
2.56547
2.53444
2.50564
2.47856
2.45357
2.43105
2.41094
2.39194
2.3724
2.35171
2.32978
2.30674
2.28288
2.25834
2.2332
2.20752
2.18145
2.15512
2.12867
2.1022
2.07583
2.04967
2.02381
1.99839
1.97351
1.94929
1.92588
1.9034
1.882
1.8618
1.84293
1.82544
1.80945
1.79488
1.78183
1.77062
1.76124
1.75357
1.7476
1.74334
1.74124
1.74128
1.74154
1.7421
1.74276
1.74403
1.74672
1.75092
1.7558
1.76081
1.76556
1.77
1.77424
1.77795
1.78081
1.78342
1.78323
2.31078
2.34585
2.41926
2.46151
2.49834
2.55378
2.6186
2.65913
2.65575
2.64878
2.63923
2.62044
2.58805
2.55836
2.52866
2.50047
2.47368
2.44871
2.42597
2.40545
2.38621
2.36676
2.3464
2.32487
2.30225
2.27878
2.25458
2.22974
2.20436
2.17858
2.15258
2.12646
2.10033
2.07429
2.04846
2.02293
1.99782
1.97326
1.94936
1.92627
1.9041
1.88299
1.86308
1.84447
1.82724
1.81147
1.7972
1.7843
1.77317
1.76396
1.75648
1.75071
1.74663
1.74467
1.74472
1.74492
1.74555
1.74625
1.74758
1.75037
1.75467
1.75942
1.76435
1.76917
1.77383
1.77828
1.78234
1.78554
1.78848
1.7883
2.36257
2.37893
2.41899
2.46189
2.49584
2.54678
2.60576
2.64319
2.64007
2.63517
2.62715
2.61041
2.57987
2.55222
2.52342
2.49558
2.46893
2.44392
2.421
2.40016
2.38068
2.36129
2.34121
2.32005
2.29784
2.27474
2.25087
2.22632
2.20122
2.17575
2.15006
2.12426
2.09846
2.07275
2.04723
2.02202
1.99723
1.97297
1.94937
1.92659
1.90473
1.88393
1.86429
1.84595
1.82899
1.81346
1.79947
1.78681
1.7758
1.76674
1.75947
1.75393
1.75012
1.74836
1.74843
1.74857
1.74921
1.75007
1.75157
1.7544
1.759
1.76365
1.76847
1.77326
1.77804
1.78264
1.78697
1.79049
1.79389
1.79375
2.38607
2.39555
2.42094
2.46155
2.49136
2.53744
2.59091
2.62615
2.62403
2.62149
2.61515
2.60091
2.57298
2.54676
2.51852
2.49085
2.46426
2.43922
2.41616
2.39506
2.37536
2.356
2.33613
2.31531
2.29349
2.27075
2.24719
2.22292
2.19811
2.17294
2.14756
2.12208
2.0966
2.0712
2.04599
2.02109
1.9966
1.97265
1.94936
1.92687
1.90531
1.8848
1.86546
1.8474
1.8307
1.81543
1.80168
1.78937
1.7785
1.76958
1.76256
1.75727
1.75378
1.7523
1.75234
1.75255
1.75302
1.75423
1.7559
1.75886
1.76381
1.76843
1.77315
1.77789
1.78269
1.78742
1.79194
1.79571
1.79958
1.79947
2.39792
2.40497
2.42264
2.45774
2.48428
2.52591
2.57444
2.60788
2.6092
2.60774
2.60291
2.59135
2.56733
2.54203
2.51383
2.48619
2.45964
2.43461
2.41145
2.39015
2.37026
2.35088
2.33118
2.31066
2.28919
2.26678
2.24351
2.21953
2.19501
2.17015
2.14508
2.11991
2.09474
2.06964
2.04474
2.02014
1.99595
1.97229
1.94931
1.92711
1.90585
1.88564
1.86659
1.84881
1.83238
1.81738
1.80386
1.79192
1.78128
1.77251
1.76574
1.76074
1.75759
1.75647
1.75652
1.75671
1.75724
1.75841
1.7606
1.76383
1.76901
1.77369
1.77832
1.78302
1.78782
1.79263
1.79728
1.80122
1.80548
1.80541
2.40444
2.40877
2.42183
2.44951
2.47513
2.51275
2.55684
2.5892
2.59517
2.59425
2.59047
2.5818
2.56222
2.53795
2.50926
2.48161
2.45508
2.4301
2.40691
2.38546
2.36538
2.34594
2.32634
2.30607
2.28491
2.2628
2.23983
2.21614
2.19192
2.16736
2.1426
2.11774
2.09287
2.06807
2.04346
2.01915
1.99526
1.97189
1.94921
1.9273
1.90634
1.88643
1.86767
1.85018
1.83404
1.81931
1.80605
1.79442
1.78412
1.77557
1.76904
1.76436
1.76154
1.76083
1.76088
1.7611
1.76164
1.76291
1.76552
1.76932
1.77458
1.77933
1.78393
1.7886
1.7934
1.79822
1.80298
1.80703
1.81158
1.81154
2.40668
2.4096
2.41919
2.43992
2.46496
2.49844
2.53854
2.57054
2.58176
2.58122
2.57827
2.57082
2.55792
2.53428
2.50481
2.47714
2.45063
2.42575
2.40255
2.38097
2.36072
2.34117
2.32162
2.30153
2.28063
2.25881
2.23613
2.21274
2.18882
2.16457
2.14012
2.11556
2.09099
2.06649
2.04217
2.01814
1.99453
1.97145
1.94905
1.92745
1.90679
1.88717
1.86872
1.85153
1.83567
1.82124
1.80826
1.7969
1.78701
1.77874
1.77247
1.76812
1.76566
1.76536
1.76542
1.76567
1.7663
1.76771
1.7706
1.77529
1.7805
1.78529
1.78987
1.79454
1.79936
1.80418
1.809
1.8131
1.81786
1.81785
2.4059
2.40822
2.41546
2.43097
2.45372
2.48322
2.5199
2.55213
2.56886
2.56798
2.56647
2.56202
2.5516
2.53026
2.50058
2.4729
2.44637
2.42161
2.3984
2.3767
2.35626
2.33657
2.317
2.29704
2.27636
2.2548
2.23241
2.20932
2.18571
2.16177
2.13763
2.11337
2.08909
2.06488
2.04084
2.0171
1.99377
1.97098
1.94886
1.92755
1.90719
1.88788
1.86973
1.85284
1.83729
1.82315
1.81047
1.79938
1.78992
1.78202
1.77603
1.77204
1.76996
1.77003
1.77013
1.77042
1.77115
1.77276
1.77605
1.78154
1.78674
1.79152
1.7961
1.80077
1.8056
1.81041
1.81525
1.81936
1.82426
1.82427
2.40335
2.40487
2.40981
2.42125
2.44015
2.46719
2.50132
2.53426
2.55528
2.55702
2.55607
2.55253
2.54331
2.52457
2.49693
2.4689
2.4424
2.41772
2.39448
2.37266
2.35201
2.33214
2.31251
2.29262
2.2721
2.25079
2.22867
2.20588
2.18259
2.15896
2.13512
2.11116
2.08717
2.06324
2.03948
2.01602
1.99297
1.97046
1.94863
1.9276
1.90754
1.88855
1.87071
1.85413
1.83889
1.82506
1.8127
1.80191
1.79283
1.78538
1.77974
1.77611
1.77459
1.77463
1.77476
1.7753
1.77633
1.7782
1.78193
1.78798
1.79323
1.79795
1.80253
1.80721
1.81204
1.81684
1.82164
1.82575
1.83065
1.83076
2.39834
2.39918
2.40229
2.41111
2.42606
2.45126
2.4834
2.51701
2.54184
2.54645
2.54566
2.54246
2.53495
2.5171
2.49369
2.46504
2.4388
2.41409
2.3908
2.36882
2.34796
2.32789
2.30815
2.28827
2.26787
2.24676
2.22491
2.20241
2.17943
2.15611
2.13257
2.10891
2.08521
2.06156
2.03808
2.01489
1.99212
1.9699
1.94836
1.92761
1.90786
1.88918
1.87166
1.8554
1.84048
1.82698
1.81495
1.80449
1.79576
1.78881
1.78357
1.78035
1.77938
1.77942
1.77962
1.78019
1.78139
1.78395
1.78842
1.79459
1.79988
1.80455
1.80911
1.81378
1.8186
1.82337
1.82812
1.83221
1.83703
1.83722
2.38907
2.39032
2.39403
2.40113
2.41363
2.43638
2.46609
2.4998
2.52797
2.53556
2.53483
2.53218
2.52446
2.51044
2.49002
2.46144
2.43553
2.4107
2.38736
2.36521
2.34412
2.32383
2.30394
2.28402
2.26369
2.24274
2.22112
2.1989
2.17622
2.15321
2.12999
2.10662
2.08321
2.05984
2.03664
2.01372
1.99123
1.96929
1.94804
1.9276
1.90815
1.88977
1.87258
1.85665
1.84206
1.82889
1.81721
1.80711
1.79876
1.79228
1.78751
1.78472
1.78428
1.78434
1.78459
1.78524
1.78669
1.78974
1.79536
1.8014
1.80663
1.81125
1.81578
1.82043
1.8252
1.82993
1.83462
1.83865
1.84335
1.84358
2.37951
2.38085
2.38443
2.39063
2.40373
2.42271
2.44943
2.48217
2.51272
2.52396
2.52343
2.52053
2.5138
2.50382
2.48552
2.45811
2.43248
2.40758
2.38415
2.36182
2.3405
2.31998
2.29991
2.27989
2.25957
2.23873
2.21731
2.19535
2.17296
2.15026
2.12734
2.10428
2.08115
2.05807
2.03514
2.0125
1.99028
1.96862
1.94766
1.92756
1.90839
1.89033
1.87347
1.85787
1.84362
1.8308
1.81948
1.80977
1.80183
1.79582
1.79155
1.78924
1.78925
1.78933
1.78963
1.79044
1.79222
1.79584
1.80247
1.80838
1.81344
1.81799
1.82248
1.82708
1.8318
1.83646
1.84108
1.84501
1.84963
1.84983
2.37082
2.37232
2.3756
2.38251
2.39297
2.40953
2.43412
2.46445
2.49588
2.51147
2.51039
2.50805
2.50419
2.49633
2.47989
2.455
2.42954
2.40471
2.38117
2.35865
2.33712
2.31635
2.29606
2.27589
2.25552
2.23475
2.21348
2.19175
2.16964
2.14724
2.12463
2.10186
2.07903
2.05623
2.03358
2.01121
1.98927
1.9679
1.94723
1.92744
1.90858
1.89085
1.87432
1.85907
1.84517
1.83271
1.82177
1.81246
1.80497
1.79944
1.79568
1.79402
1.79405
1.79419
1.79467
1.79592
1.79815
1.8024
1.80957
1.81542
1.82028
1.82473
1.82916
1.83369
1.83833
1.84291
1.84744
1.8513
1.8558
1.85598
2.36294
2.36443
2.36784
2.37349
2.3826
2.39743
2.41902
2.44667
2.47777
2.49693
2.49731
2.4965
2.49379
2.4871
2.47323
2.45193
2.42661
2.40204
2.37839
2.35572
2.33396
2.31295
2.29241
2.27205
2.25158
2.2308
2.20963
2.1881
2.16625
2.14414
2.12183
2.09936
2.07682
2.05431
2.03194
2.00986
1.9882
1.96712
1.94676
1.92725
1.90873
1.89133
1.87514
1.86024
1.84671
1.83462
1.82407
1.81519
1.80818
1.80314
1.7999
1.7989
1.79895
1.79916
1.79979
1.80124
1.80402
1.80972
1.81669
1.82241
1.8271
1.83144
1.83579
1.84023
1.84477
1.84923
1.85366
1.85745
1.86186
1.86202
2.3553
2.35678
2.36002
2.36471
2.37276
2.38548
2.40422
2.42941
2.45914
2.48068
2.4849
2.48434
2.48242
2.47669
2.46565
2.44852
2.42365
2.39953
2.37581
2.35301
2.33105
2.30978
2.28898
2.26838
2.24774
2.2269
2.20579
2.18441
2.1628
2.14097
2.11894
2.09677
2.07453
2.0523
2.03022
2.00842
1.98706
1.96628
1.94622
1.92703
1.90882
1.89176
1.87593
1.86139
1.84823
1.83652
1.82639
1.81795
1.81145
1.80691
1.80421
1.80382
1.80388
1.80415
1.8049
1.80662
1.81019
1.8172
1.82389
1.82932
1.83384
1.83808
1.84232
1.84665
1.85106
1.85541
1.85972
1.86345
1.86777
1.86794
2.34775
2.3492
2.35191
2.35585
2.36286
2.37381
2.39019
2.41301
2.44038
2.46334
2.47192
2.47154
2.46932
2.4654
2.45834
2.44391
2.42074
2.39706
2.3734
2.35053
2.32838
2.30686
2.28577
2.26489
2.24404
2.22309
2.20198
2.18071
2.15929
2.13771
2.11596
2.09408
2.07212
2.05019
2.0284
2.0069
1.98583
1.96536
1.94562
1.92676
1.90887
1.89217
1.87669
1.86252
1.84973
1.83842
1.82871
1.82074
1.81478
1.81075
1.80862
1.80866
1.8088
1.80915
1.81009
1.81225
1.81671
1.82456
1.83105
1.83614
1.84048
1.8446
1.84873
1.85293
1.85719
1.8614
1.8656
1.86925
1.87349
1.87374
2.34014
2.34152
2.34368
2.34696
2.35323
2.36261
2.37675
2.39694
2.42152
2.44521
2.4577
2.45756
2.45688
2.45456
2.4488
2.4372
2.41779
2.39448
2.37114
2.34824
2.32594
2.30417
2.28279
2.26161
2.2405
2.21937
2.19821
2.177
2.15574
2.13437
2.11288
2.09127
2.0696
2.04795
2.02646
2.00527
1.98451
1.96435
1.94494
1.92643
1.90888
1.89254
1.87742
1.86362
1.85121
1.84031
1.83104
1.82355
1.81814
1.81464
1.81324
1.81327
1.81346
1.81403
1.81537
1.81831
1.82374
1.83173
1.838
1.84282
1.84699
1.85097
1.85497
1.85902
1.86313
1.8672
1.87127
1.87484
1.879
1.87926
2.33238
2.33377
2.3355
2.3383