/*--------------------------------*- C++ -*----------------------------------*\
  =========                 |
  \\      /  F ield         | OpenFOAM: The Open Source CFD Toolbox
   \\    /   O peration     | Website:  https://openfoam.org
    \\  /    A nd           | Version:  9
     \\/     M anipulation  |
\*---------------------------------------------------------------------------*/
FoamFile
{
    format      ascii;
    class       surfaceScalarField;
    location    "0.004";
    object      phi;
}
// * * * * * * * * * * * * * * * * * * * * * * * * * * * * * * * * * * * * * //

dimensions      [1 0 -1 0 0 0 0];

internalField   nonuniform List<scalar> 
72280
(
1.12235e-05
-6.71034e-18
1.12235e-05
-1.5053e-17
1.12235e-05
-1.89642e-17
1.12235e-05
-2.21911e-17
1.12235e-05
-2.82316e-17
1.12235e-05
-3.59214e-17
1.12235e-05
-4.57898e-17
1.12235e-05
-5.82812e-17
1.12235e-05
-7.41397e-17
1.12235e-05
-9.46048e-17
1.12235e-05
-1.21065e-16
1.12235e-05
-1.55093e-16
1.12235e-05
-1.99314e-16
1.12235e-05
-2.57341e-16
1.12235e-05
-3.33886e-16
1.12235e-05
-4.35177e-16
1.12235e-05
-5.69221e-16
1.12235e-05
-7.46403e-16
1.12235e-05
-9.79309e-16
1.12235e-05
-1.283e-15
1.12235e-05
-1.67582e-15
1.12235e-05
-2.18234e-15
1.12235e-05
-2.83781e-15
1.12235e-05
-3.6911e-15
1.12235e-05
-4.80867e-15
1.12235e-05
-6.27942e-15
1.12235e-05
-8.22005e-15
1.12235e-05
-1.0786e-14
1.12235e-05
-1.41944e-14
1.12235e-05
-1.87501e-14
1.12235e-05
-2.4851e-14
1.12235e-05
-3.3006e-14
1.12235e-05
-4.386e-14
1.12235e-05
-5.82138e-14
1.12235e-05
-7.7161e-14
1.12235e-05
-1.02344e-13
1.12235e-05
-1.36221e-13
1.12235e-05
-1.82402e-13
1.12235e-05
-2.46069e-13
1.12235e-05
-3.34345e-13
1.12235e-05
-4.56796e-13
1.12235e-05
-6.26391e-13
1.12235e-05
-8.60804e-13
1.12235e-05
-1.18382e-12
1.12235e-05
-1.6296e-12
1.12235e-05
-2.25667e-12
1.12235e-05
-3.19114e-12
1.12234e-05
-4.78003e-12
1.12234e-05
-7.84532e-12
1.12234e-05
-1.38679e-11
1.12234e-05
-2.57689e-11
1.12233e-05
-4.93328e-11
1.1223e-05
-9.625e-11
1.12226e-05
-1.8971e-10
1.12217e-05
-3.75954e-10
1.12199e-05
-7.4596e-10
1.12163e-05
-1.4899e-09
1.12092e-05
-2.92723e-09
1.11957e-05
-6.24792e-09
-9.64553e-09
1.11666e-05
1.12235e-05
-4.7052e-18
1.12235e-05
-1.50162e-17
1.12235e-05
-2.12561e-17
1.12235e-05
-2.49963e-17
1.12235e-05
-3.1375e-17
1.12235e-05
-3.97057e-17
1.12235e-05
-5.03379e-17
1.12235e-05
-6.39994e-17
1.12235e-05
-8.17535e-17
1.12235e-05
-1.04882e-16
1.12235e-05
-1.3484e-16
1.12235e-05
-1.73812e-16
1.12235e-05
-2.24619e-16
1.12235e-05
-2.91273e-16
1.12235e-05
-3.79525e-16
1.12235e-05
-4.9684e-16
1.12235e-05
-6.52876e-16
1.12235e-05
-8.59793e-16
1.12235e-05
-1.13191e-15
1.12235e-05
-1.48603e-15
1.12235e-05
-1.94353e-15
1.12235e-05
-2.53475e-15
1.12235e-05
-3.30245e-15
1.12235e-05
-4.30553e-15
1.12235e-05
-5.62562e-15
1.12235e-05
-7.37234e-15
1.12235e-05
-9.68839e-15
1.12235e-05
-1.2765e-14
1.12235e-05
-1.68775e-14
1.12235e-05
-2.2406e-14
1.12235e-05
-2.98543e-14
1.12235e-05
-3.99083e-14
1.12235e-05
-5.34565e-14
1.12235e-05
-7.16671e-14
1.12235e-05
-9.61641e-14
1.12235e-05
-1.29221e-13
1.12235e-05
-1.73986e-13
1.12235e-05
-2.35042e-13
1.12235e-05
-3.19166e-13
1.12235e-05
-4.35599e-13
1.12235e-05
-5.9636e-13
1.12235e-05
-8.17665e-13
1.12235e-05
-1.12233e-12
1.12235e-05
-1.54418e-12
1.12235e-05
-2.13848e-12
1.12235e-05
-3.00335e-12
1.12234e-05
-4.36147e-12
1.12234e-05
-6.94938e-12
1.12234e-05
-1.23544e-11
1.12234e-05
-2.33826e-11
1.12233e-05
-4.57159e-11
1.12232e-05
-9.07009e-11
1.1223e-05
-1.81124e-10
1.12225e-05
-3.62573e-10
1.12215e-05
-7.26634e-10
1.12195e-05
-1.45473e-09
1.12156e-05
-2.92811e-09
1.12078e-05
-5.80225e-09
1.11929e-05
-1.23318e-08
-2.08149e-08
1.1161e-05
1.12235e-05
-3.76959e-18
1.12235e-05
-1.324e-17
1.12235e-05
-2.04639e-17
1.12235e-05
-2.39701e-17
1.12235e-05
-3.05413e-17
1.12235e-05
-3.88638e-17
1.12235e-05
-4.93004e-17
1.12235e-05
-6.28267e-17
1.12235e-05
-8.0571e-17
1.12235e-05
-1.03785e-16
1.12235e-05
-1.34374e-16
1.12235e-05
-1.74247e-16
1.12235e-05
-2.26566e-16
1.12235e-05
-2.95642e-16
1.12235e-05
-3.87251e-16
1.12235e-05
-5.0955e-16
1.12235e-05
-6.7301e-16
1.12235e-05
-8.90954e-16
1.12235e-05
-1.17879e-15
1.12235e-05
-1.554e-15
1.12235e-05
-2.04024e-15
1.12235e-05
-2.67115e-15
1.12235e-05
-3.4941e-15
1.12235e-05
-4.57417e-15
1.12235e-05
-6.00292e-15
1.12235e-05
-7.90619e-15
1.12235e-05
-1.04503e-14
1.12235e-05
-1.38596e-14
1.12235e-05
-1.84554e-14
1.12235e-05
-2.46834e-14
1.12235e-05
-3.3145e-14
1.12235e-05
-4.4679e-14
1.12235e-05
-6.04271e-14
1.12235e-05
-8.19819e-14
1.12235e-05
-1.11596e-13
1.12235e-05
-1.52337e-13
1.12235e-05
-2.08282e-13
1.12235e-05
-2.85119e-13
1.12235e-05
-3.91212e-13
1.12235e-05
-5.38185e-13
1.12235e-05
-7.41333e-13
1.12235e-05
-1.02122e-12
1.12235e-05
-1.40735e-12
1.12235e-05
-1.94642e-12
1.12235e-05
-2.72265e-12
1.12234e-05
-3.90962e-12
1.12234e-05
-5.96684e-12
1.12234e-05
-1.03798e-11
1.12234e-05
-1.9704e-11
1.12234e-05
-3.88838e-11
1.12233e-05
-7.78835e-11
1.12231e-05
-1.56764e-10
1.12228e-05
-3.15869e-10
1.12222e-05
-6.36173e-10
1.1221e-05
-1.28077e-09
1.12185e-05
-2.57336e-09
1.12136e-05
-5.19509e-09
1.12037e-05
-1.03415e-08
1.11845e-05
-2.19917e-08
-3.77737e-08
1.11441e-05
1.12235e-05
-3.40166e-18
1.12235e-05
-1.17778e-17
1.12235e-05
-1.89594e-17
1.12235e-05
-2.25211e-17
1.12235e-05
-2.87746e-17
1.12235e-05
-3.69591e-17
1.12235e-05
-4.71558e-17
1.12235e-05
-6.03617e-17
1.12235e-05
-7.78332e-17
1.12235e-05
-1.01197e-16
1.12235e-05
-1.31746e-16
1.12235e-05
-1.71971e-16
1.12235e-05
-2.25051e-16
1.12235e-05
-2.95595e-16
1.12235e-05
-3.89664e-16
1.12235e-05
-5.15469e-16
1.12235e-05
-6.84358e-16
1.12235e-05
-9.10799e-16
1.12235e-05
-1.21178e-15
1.12235e-05
-1.60691e-15
1.12235e-05
-2.12237e-15
1.12235e-05
-2.79653e-15
1.12235e-05
-3.68206e-15
1.12235e-05
-4.85183e-15
1.12235e-05
-6.40908e-15
1.12235e-05
-8.49963e-15
1.12235e-05
-1.13223e-14
1.12235e-05
-1.51462e-14
1.12235e-05
-2.03533e-14
1.12235e-05
-2.74802e-14
1.12235e-05
-3.72541e-14
1.12235e-05
-5.07168e-14
1.12235e-05
-6.93598e-14
1.12235e-05
-9.53222e-14
1.12235e-05
-1.31685e-13
1.12235e-05
-1.82667e-13
1.12235e-05
-2.53844e-13
1.12235e-05
-3.52698e-13
1.12235e-05
-4.89941e-13
1.12235e-05
-6.80754e-13
1.12235e-05
-9.45707e-13
1.12235e-05
-1.31273e-12
1.12235e-05
-1.82232e-12
1.12235e-05
-2.5418e-12
1.12235e-05
-3.60869e-12
1.12234e-05
-5.36561e-12
1.12234e-05
-8.85383e-12
1.12234e-05
-1.64602e-11
1.12234e-05
-3.23848e-11
1.12233e-05
-6.50844e-11
1.12232e-05
-1.31531e-10
1.1223e-05
-2.6582e-10
1.12226e-05
-5.36485e-10
1.12217e-05
-1.08105e-09
1.122e-05
-2.17707e-09
1.12166e-05
-4.37656e-09
1.12098e-05
-8.84233e-09
1.1196e-05
-1.76265e-08
1.11694e-05
-3.75637e-08
-6.45516e-08
1.11118e-05
1.12235e-05
-2.76501e-18
1.12235e-05
-1.06317e-17
1.12235e-05
-1.75511e-17
1.12235e-05
-2.13151e-17
1.12235e-05
-2.72126e-17
1.12235e-05
-3.51561e-17
1.12235e-05
-4.5197e-17
1.12235e-05
-5.83077e-17
1.12235e-05
-7.58377e-17
1.12235e-05
-9.90757e-17
1.12235e-05
-1.30007e-16
1.12235e-05
-1.71098e-16
1.12235e-05
-2.25613e-16
1.12235e-05
-2.98491e-16
1.12235e-05
-3.95912e-16
1.12235e-05
-5.26618e-16
1.12235e-05
-7.0257e-16
1.12235e-05
-9.39786e-16
1.12235e-05
-1.25754e-15
1.12235e-05
-1.67867e-15
1.12235e-05
-2.23439e-15
1.12235e-05
-2.96903e-15
1.12235e-05
-3.9446e-15
1.12235e-05
-5.246e-15
1.12235e-05
-6.99303e-15
1.12235e-05
-9.35783e-15
1.12235e-05
-1.25835e-14
1.12235e-05
-1.70063e-14
1.12235e-05
-2.30975e-14
1.12235e-05
-3.1524e-14
1.12235e-05
-4.32084e-14
1.12235e-05
-5.94861e-14
1.12235e-05
-8.23276e-14
1.12235e-05
-1.14607e-13
1.12235e-05
-1.6051e-13
1.12235e-05
-2.25886e-13
1.12235e-05
-3.18616e-13
1.12235e-05
-4.49188e-13
1.12235e-05
-6.32103e-13
1.12235e-05
-8.87906e-13
1.12235e-05
-1.2454e-12
1.12235e-05
-1.74491e-12
1.12235e-05
-2.44645e-12
1.12235e-05
-3.45671e-12
1.12235e-05
-5.02832e-12
1.12234e-05
-7.90797e-12
1.12234e-05
-1.41159e-11
1.12234e-05
-2.71737e-11
1.12234e-05
-5.40636e-11
1.12233e-05
-1.08805e-10
1.12231e-05
-2.19612e-10
1.12228e-05
-4.43191e-10
1.12222e-05
-8.93464e-10
1.12209e-05
-1.79909e-09
1.12183e-05
-3.62194e-09
1.12132e-05
-7.27947e-09
1.1203e-05
-1.4706e-08
1.11822e-05
-2.93332e-08
1.11423e-05
-6.26247e-08
-1.07837e-07
1.1057e-05
1.12235e-05
-2.5147e-18
1.12235e-05
-9.60934e-18
1.12235e-05
-1.63176e-17
1.12235e-05
-2.00403e-17
1.12235e-05
-2.58147e-17
1.12235e-05
-3.36979e-17
1.12235e-05
-4.37269e-17
1.12235e-05
-5.70488e-17
1.12235e-05
-7.48203e-17
1.12235e-05
-9.84809e-17
1.12235e-05
-1.30237e-16
1.12235e-05
-1.72678e-16
1.12235e-05
-2.29646e-16
1.12235e-05
-3.05964e-16
1.12235e-05
-4.08675e-16
1.12235e-05
-5.46805e-16
1.12235e-05
-7.33222e-16
1.12235e-05
-9.85269e-16
1.12235e-05
-1.32536e-15
1.12235e-05
-1.78192e-15
1.12235e-05
-2.3926e-15
1.12235e-05
-3.21082e-15
1.12235e-05
-4.31194e-15
1.12235e-05
-5.79974e-15
1.12235e-05
-7.81921e-15
1.12235e-05
-1.05781e-14
1.12235e-05
-1.43771e-14
1.12235e-05
-1.96454e-14
1.12235e-05
-2.69864e-14
1.12235e-05
-3.72584e-14
1.12235e-05
-5.16767e-14
1.12235e-05
-7.20031e-14
1.12235e-05
-1.00848e-13
1.12235e-05
-1.42045e-13
1.12235e-05
-2.01227e-13
1.12235e-05
-2.86462e-13
1.12235e-05
-4.08921e-13
1.12235e-05
-5.83657e-13
1.12235e-05
-8.31101e-13
1.12235e-05
-1.17993e-12
1.12235e-05
-1.67115e-12
1.12235e-05
-2.36402e-12
1.12235e-05
-3.35133e-12
1.12235e-05
-4.81771e-12
1.12234e-05
-7.29197e-12
1.12234e-05
-1.23631e-11
1.12234e-05
-2.29657e-11
1.12234e-05
-4.47915e-11
1.12233e-05
-8.92391e-11
1.12232e-05
-1.79194e-10
1.1223e-05
-3.60623e-10
1.12225e-05
-7.25933e-10
1.12215e-05
-1.46083e-09
1.12195e-05
-2.93741e-09
1.12155e-05
-5.90574e-09
1.12077e-05
-1.1857e-08
1.1192e-05
-2.3944e-08
1.11602e-05
-4.77995e-08
1.10995e-05
-1.02136e-07
-1.77774e-07
1.09687e-05
1.12235e-05
-2.4212e-18
1.12235e-05
-8.75784e-18
1.12235e-05
-1.51766e-17
1.12235e-05
-1.88294e-17
1.12235e-05
-2.47062e-17
1.12235e-05
-3.26529e-17
1.12235e-05
-4.30297e-17
1.12235e-05
-5.6782e-17
1.12235e-05
-7.49972e-17
1.12235e-05
-9.94419e-17
1.12235e-05
-1.32495e-16
1.12235e-05
-1.76945e-16
1.12235e-05
-2.37073e-16
1.12235e-05
-3.18521e-16
1.12235e-05
-4.28849e-16
1.12235e-05
-5.77602e-16
1.12235e-05
-7.78321e-16
1.12235e-05
-1.05034e-15
1.12235e-05
-1.42007e-15
1.12235e-05
-1.92255e-15
1.12235e-05
-2.60492e-15
1.12235e-05
-3.53316e-15
1.12235e-05
-4.80081e-15
1.12235e-05
-6.53828e-15
1.12235e-05
-8.92718e-15
1.12235e-05
-1.22256e-14
1.12235e-05
-1.68109e-14
1.12235e-05
-2.32339e-14
1.12235e-05
-3.22854e-14
1.12235e-05
-4.50994e-14
1.12235e-05
-6.33063e-14
1.12235e-05
-8.92678e-14
1.12235e-05
-1.26451e-13
1.12235e-05
-1.79948e-13
1.12235e-05
-2.57276e-13
1.12235e-05
-3.69425e-13
1.12235e-05
-5.31959e-13
1.12235e-05
-7.66265e-13
1.12235e-05
-1.10154e-12
1.12235e-05
-1.57871e-12
1.12235e-05
-2.25674e-12
1.12235e-05
-3.22308e-12
1.12235e-05
-4.62607e-12
1.12235e-05
-6.81804e-12
1.12234e-05
-1.09764e-11
1.12234e-05
-1.95214e-11
1.12234e-05
-3.69578e-11
1.12234e-05
-7.23187e-11
1.12233e-05
-1.43713e-10
1.12231e-05
-2.87505e-10
1.12227e-05
-5.76572e-10
1.12219e-05
-1.15691e-09
1.12204e-05
-2.32174e-09
1.12173e-05
-4.65949e-09
1.1211e-05
-9.35693e-09
1.11986e-05
-1.87723e-08
1.11737e-05
-3.78921e-08
1.11241e-05
-7.57148e-08
1.1029e-05
-1.6174e-07
-2.87406e-07
1.08253e-05
1.12235e-05
-2.18388e-18
1.12235e-05
-8.40364e-18
1.12235e-05
-1.46238e-17
1.12235e-05
-1.82382e-17
1.12235e-05
-2.39419e-17
1.12235e-05
-3.23302e-17
1.12235e-05
-4.30806e-17
1.12235e-05
-5.71884e-17
1.12235e-05
-7.60597e-17
1.12235e-05
-1.01688e-16
1.12235e-05
-1.36374e-16
1.12235e-05
-1.83625e-16
1.12235e-05
-2.48217e-16
1.12235e-05
-3.36368e-16
1.12235e-05
-4.56321e-16
1.12235e-05
-6.18759e-16
1.12235e-05
-8.384e-16
1.12235e-05
-1.13657e-15
1.12235e-05
-1.54418e-15
1.12235e-05
-2.10462e-15
1.12235e-05
-2.87688e-15
1.12235e-05
-3.94342e-15
1.12235e-05
-5.42178e-15
1.12235e-05
-7.47754e-15
1.12235e-05
-1.0342e-14
1.12235e-05
-1.43439e-14
1.12235e-05
-1.9964e-14
1.12235e-05
-2.79134e-14
1.12235e-05
-3.92323e-14
1.12235e-05
-5.54299e-14
1.12235e-05
-7.86951e-14
1.12235e-05
-1.12196e-13
1.12235e-05
-1.6054e-13
1.12235e-05
-2.30468e-13
1.12235e-05
-3.31951e-13
1.12235e-05
-4.79716e-13
1.12235e-05
-6.94964e-13
1.12235e-05
-1.00741e-12
1.12235e-05
-1.45836e-12
1.12235e-05
-2.10618e-12
1.12235e-05
-3.03545e-12
1.12235e-05
-4.37464e-12
1.12235e-05
-6.37179e-12
1.12234e-05
-9.75882e-12
1.12234e-05
-1.65039e-11
1.12234e-05
-3.00413e-11
1.12234e-05
-5.72531e-11
1.12233e-05
-1.11946e-10
1.12232e-05
-2.21739e-10
1.12229e-05
-4.42014e-10
1.12223e-05
-8.8391e-10
1.12211e-05
-1.77029e-09
1.12186e-05
-3.54801e-09
1.12138e-05
-7.11233e-09
1.1204e-05
-1.42673e-08
1.11845e-05
-2.8601e-08
1.11455e-05
-5.77134e-08
1.10666e-05
-1.15479e-07
1.0913e-05
-2.46248e-07
-4.50242e-07
1.05966e-05
1.12235e-05
-2.10958e-18
1.12235e-05
-8.14241e-18
1.12235e-05
-1.426e-17
1.12235e-05
-1.78304e-17
1.12235e-05
-2.38863e-17
1.12235e-05
-3.24433e-17
1.12235e-05
-4.37443e-17
1.12235e-05
-5.85144e-17
1.12235e-05
-7.84205e-17
1.12235e-05
-1.05397e-16
1.12235e-05
-1.42167e-16
1.12235e-05
-1.92779e-16
1.12235e-05
-2.62592e-16
1.12235e-05
-3.58879e-16
1.12235e-05
-4.90623e-16
1.12235e-05
-6.69611e-16
1.12235e-05
-9.12426e-16
1.12235e-05
-1.24346e-15
1.12235e-05
-1.69889e-15
1.12235e-05
-2.33089e-15
1.12235e-05
-3.21293e-15
1.12235e-05
-4.44836e-15
1.12235e-05
-6.18456e-15
1.12235e-05
-8.63107e-15
1.12235e-05
-1.20845e-14
1.12235e-05
-1.69687e-14
1.12235e-05
-2.39035e-14
1.12235e-05
-3.38098e-14
1.12235e-05
-4.80486e-14
1.12235e-05
-6.86156e-14
1.12235e-05
-9.84193e-14
1.12235e-05
-1.41674e-13
1.12235e-05
-2.04477e-13
1.12235e-05
-2.95716e-13
1.12235e-05
-4.2853e-13
1.12235e-05
-6.22392e-13
1.12235e-05
-9.05611e-13
1.12235e-05
-1.31851e-12
1.12235e-05
-1.91833e-12
1.12235e-05
-2.78688e-12
1.12235e-05
-4.04348e-12
1.12235e-05
-5.87881e-12
1.12235e-05
-8.73329e-12
1.12234e-05
-1.39729e-11
1.12234e-05
-2.4212e-11
1.12234e-05
-4.45356e-11
1.12233e-05
-8.50937e-11
1.12232e-05
-1.66242e-10
1.1223e-05
-3.28654e-10
1.12225e-05
-6.53822e-10
1.12216e-05
-1.30494e-09
1.12197e-05
-2.60834e-09
1.1216e-05
-5.21616e-09
1.12085e-05
-1.04319e-08
1.11935e-05
-2.08748e-08
1.11632e-05
-4.17537e-08
1.11037e-05
-8.40958e-08
1.09861e-05
-1.68297e-07
1.07526e-05
-3.56897e-07
-6.75626e-07
1.02737e-05
1.12235e-05
-2.09797e-18
1.12235e-05
-7.90406e-18
1.12235e-05
-1.40963e-17
1.12235e-05
-1.78821e-17
1.12235e-05
-2.41735e-17
1.12235e-05
-3.31813e-17
1.12235e-05
-4.4992e-17
1.12235e-05
-6.06369e-17
1.12235e-05
-8.16202e-17
1.12235e-05
-1.10094e-16
1.12235e-05
-1.49379e-16
1.12235e-05
-2.04165e-16
1.12235e-05
-2.8039e-16
1.12235e-05
-3.8589e-16
1.12235e-05
-5.30757e-16
1.12235e-05
-7.2879e-16
1.12235e-05
-9.99187e-16
1.12235e-05
-1.37005e-15
1.12235e-05
-1.88386e-15
1.12235e-05
-2.603e-15
1.12235e-05
-3.61716e-15
1.12235e-05
-5.05449e-15
1.12235e-05
-7.09827e-15
1.12235e-05
-1.00121e-14
1.12235e-05
-1.41742e-14
1.12235e-05
-2.01307e-14
1.12235e-05
-2.86826e-14
1.12235e-05
-4.10185e-14
1.12235e-05
-5.89036e-14
1.12235e-05
-8.49407e-14
1.12235e-05
-1.22937e-13
1.12235e-05
-1.78421e-13
1.12235e-05
-2.59381e-13
1.12235e-05
-3.77447e-13
1.12235e-05
-5.49793e-13
1.12235e-05
-8.01874e-13
1.12235e-05
-1.17089e-12
1.12235e-05
-1.71052e-12
1.12235e-05
-2.49815e-12
1.12235e-05
-3.6457e-12
1.12235e-05
-5.3178e-12
1.12235e-05
-7.80699e-12
1.12234e-05
-1.1889e-11
1.12234e-05
-1.95321e-11
1.12234e-05
-3.43649e-11
1.12234e-05
-6.36341e-11
1.12233e-05
-1.21777e-10
1.12231e-05
-2.37678e-10
1.12228e-05
-4.6887e-10
1.12221e-05
-9.30471e-10
1.12207e-05
-1.85163e-09
1.1218e-05
-3.68622e-09
1.12125e-05
-7.33294e-09
1.12017e-05
-1.4589e-08
1.11803e-05
-2.90383e-08
1.11381e-05
-5.79144e-08
1.10557e-05
-1.16552e-07
1.08933e-05
-2.33801e-07
1.0575e-05
-4.90697e-07
-9.64637e-07
9.93505e-06
1.12235e-05
-2.0636e-18
1.12235e-05
-7.76671e-18
1.12235e-05
-1.40719e-17
1.12235e-05
-1.8165e-17
1.12235e-05
-2.46901e-17
1.12235e-05
-3.41856e-17
1.12235e-05
-4.67395e-17
1.12235e-05
-6.32079e-17
1.12235e-05
-8.54495e-17
1.12235e-05
-1.15938e-16
1.12235e-05
-1.58309e-16
1.12235e-05
-2.17641e-16
1.12235e-05
-3.00713e-16
1.12235e-05
-4.16234e-16
1.12235e-05
-5.75811e-16
1.12235e-05
-7.95167e-16
1.12235e-05
-1.09687e-15
1.12235e-05
-1.51434e-15
1.12235e-05
-2.09758e-15
1.12235e-05
-2.92061e-15
1.12235e-05
-4.09142e-15
1.12235e-05
-5.76581e-15
1.12235e-05
-8.16979e-15
1.12235e-05
-1.16314e-14
1.12235e-05
-1.66276e-14
1.12235e-05
-2.38554e-14
1.12235e-05
-3.43414e-14
1.12235e-05
-4.96065e-14
1.12235e-05
-7.19118e-14
1.12235e-05
-1.046e-13
1.12235e-05
-1.52572e-13
1.12235e-05
-2.22959e-13
1.12235e-05
-3.26088e-13
1.12235e-05
-4.77007e-13
1.12235e-05
-6.97947e-13
1.12235e-05
-1.02182e-12
1.12235e-05
-1.49689e-12
1.12235e-05
-2.19339e-12
1.12235e-05
-3.21365e-12
1.12235e-05
-4.70657e-12
1.12235e-05
-6.89798e-12
1.12234e-05
-1.02455e-11
1.12234e-05
-1.59678e-11
1.12234e-05
-2.66206e-11
1.12234e-05
-4.71984e-11
1.12233e-05
-8.76589e-11
1.12232e-05
-1.67829e-10
1.1223e-05
-3.27214e-10
1.12225e-05
-6.44387e-10
1.12215e-05
-1.2764e-09
1.12196e-05
-2.53262e-09
1.12157e-05
-5.01937e-09
1.12082e-05
-9.93196e-09
1.11936e-05
-1.96138e-08
1.11654e-05
-3.88994e-08
1.11103e-05
-7.75882e-08
1.10025e-05
-1.56389e-07
1.07926e-05
-3.16067e-07
1.03795e-05
-6.49842e-07
-1.32119e-06
9.55054e-06
1.12235e-05
-2.17997e-18
1.12235e-05
-7.90877e-18
1.12235e-05
-1.42217e-17
1.12235e-05
-1.85e-17
1.12235e-05
-2.54595e-17
1.12235e-05
-3.55747e-17
1.12235e-05
-4.87644e-17
1.12235e-05
-6.62955e-17
1.12235e-05
-8.99634e-17
1.12235e-05
-1.22501e-16
1.12235e-05
-1.68174e-16
1.12235e-05
-2.32636e-16
1.12235e-05
-3.23066e-16
1.12235e-05
-4.49196e-16
1.12235e-05
-6.24236e-16
1.12235e-05
-8.66922e-16
1.12235e-05
-1.20393e-15
1.12235e-05
-1.67451e-15
1.12235e-05
-2.33758e-15
1.12235e-05
-3.28076e-15
1.12235e-05
-4.63235e-15
1.12235e-05
-6.58011e-15
1.12235e-05
-9.39908e-15
1.12235e-05
-1.34924e-14
1.12235e-05
-1.94531e-14
1.12235e-05
-2.81575e-14
1.12235e-05
-4.09011e-14
1.12235e-05
-5.96046e-14
1.12235e-05
-8.71219e-14
1.12235e-05
-1.27674e-13
1.12235e-05
-1.87463e-13
1.12235e-05
-2.75528e-13
1.12235e-05
-4.05008e-13
1.12235e-05
-5.95138e-13
1.12235e-05
-8.74356e-13
1.12235e-05
-1.28472e-12
1.12235e-05
-1.88803e-12
1.12235e-05
-2.77485e-12
1.12235e-05
-4.07757e-12
1.12235e-05
-5.98975e-12
1.12235e-05
-8.82358e-12
1.12234e-05
-1.32784e-11
1.12234e-05
-2.10738e-11
1.12234e-05
-3.55542e-11
1.12234e-05
-6.33961e-11
1.12233e-05
-1.17953e-10
1.12231e-05
-2.25792e-10
1.12228e-05
-4.39896e-10
1.12221e-05
-8.65511e-10
1.12207e-05
-1.70998e-09
1.1218e-05
-3.37937e-09
1.12126e-05
-6.67159e-09
1.12022e-05
-1.31313e-08
1.11823e-05
-2.58594e-08
1.11438e-05
-5.14423e-08
1.10675e-05
-1.02995e-07
1.09144e-05
-2.08005e-07
1.06052e-05
-4.24707e-07
1.00732e-05
-8.43638e-07
-1.68165e-06
9.31588e-06
1.12235e-05
-2.20049e-18
1.12235e-05
-7.94475e-18
1.12235e-05
-1.44944e-17
1.12235e-05
-1.90055e-17
1.12235e-05
-2.65964e-17
1.12235e-05
-3.68695e-17
1.12235e-05
-5.06556e-17
1.12235e-05
-6.92145e-17
1.12235e-05
-9.45624e-17
1.12235e-05
-1.29563e-16
1.12235e-05
-1.78685e-16
1.12235e-05
-2.4813e-16
1.12235e-05
-3.4615e-16
1.12235e-05
-4.83664e-16
1.12235e-05
-6.75462e-16
1.12235e-05
-9.43069e-16
1.12235e-05
-1.31821e-15
1.12235e-05
-1.84751e-15
1.12235e-05
-2.59994e-15
1.12235e-05
-3.67783e-15
1.12235e-05
-5.23268e-15
1.12235e-05
-7.48819e-15
1.12235e-05
-1.07752e-14
1.12235e-05
-1.55834e-14
1.12235e-05
-2.26398e-14
1.12235e-05
-3.3026e-14
1.12235e-05
-4.83482e-14
1.12235e-05
-7.0992e-14
1.12235e-05
-1.045e-13
1.12235e-05
-1.54114e-13
1.12235e-05
-2.27537e-13
1.12235e-05
-3.36034e-13
1.12235e-05
-4.96069e-13
1.12235e-05
-7.3189e-13
1.12235e-05
-1.07939e-12
1.12235e-05
-1.59161e-12
1.12235e-05
-2.34672e-12
1.12235e-05
-3.45948e-12
1.12235e-05
-5.09777e-12
1.12235e-05
-7.50978e-12
1.12234e-05
-1.1129e-11
1.12234e-05
-1.69705e-11
1.12234e-05
-2.73239e-11
1.12234e-05
-4.65837e-11
1.12233e-05
-8.35941e-11
1.12232e-05
-1.55996e-10
1.1223e-05
-2.98849e-10
1.12225e-05
-5.81711e-10
1.12215e-05
-1.14224e-09
1.12196e-05
-2.25036e-09
1.12158e-05
-4.43382e-09
1.12084e-05
-8.70656e-09
1.11943e-05
-1.70525e-08
1.11661e-05
-3.37852e-08
1.11094e-05
-6.73543e-08
1.09978e-05
-1.35174e-07
1.07774e-05
-2.73005e-07
1.03308e-05
-5.60198e-07
9.60752e-06
-1.07877e-06
-1.54415e-06
9.42893e-06
1.12235e-05
-2.16487e-18
1.12235e-05
-7.82468e-18
1.12235e-05
-1.45176e-17
1.12235e-05
-1.9675e-17
1.12235e-05
-2.74007e-17
1.12235e-05
-3.81415e-17
1.12235e-05
-5.25359e-17
1.12235e-05
-7.20769e-17
1.12235e-05
-9.88756e-17
1.12235e-05
-1.36354e-16
1.12235e-05
-1.88973e-16
1.12235e-05
-2.63633e-16
1.12235e-05
-3.6939e-16
1.12235e-05
-5.18276e-16
1.12235e-05
-7.27395e-16
1.12235e-05
-1.02172e-15
1.12235e-05
-1.43787e-15
1.12235e-05
-2.03008e-15
1.12235e-05
-2.87871e-15
1.12235e-05
-4.1029e-15
1.12235e-05
-5.87978e-15
1.12235e-05
-8.47322e-15
1.12235e-05
-1.22763e-14
1.12235e-05
-1.78765e-14
1.12235e-05
-2.61519e-14
1.12235e-05
-3.84145e-14
1.12235e-05
-5.66194e-14
1.12235e-05
-8.36755e-14
1.12235e-05
-1.23904e-13
1.12235e-05
-1.83696e-13
1.12235e-05
-2.72457e-13
1.12235e-05
-4.03995e-13
1.12235e-05
-5.98643e-13
1.12235e-05
-8.86506e-13
1.12235e-05
-1.31222e-12
1.12235e-05
-1.94181e-12
1.12235e-05
-2.87257e-12
1.12235e-05
-4.24744e-12
1.12235e-05
-6.27538e-12
1.12234e-05
-9.27276e-12
1.12234e-05
-1.38363e-11
1.12234e-05
-2.13587e-11
1.12234e-05
-3.47866e-11
1.12234e-05
-5.98651e-11
1.12233e-05
-1.08127e-10
1.12231e-05
-2.02546e-10
1.12228e-05
-3.88785e-10
1.12221e-05
-7.5698e-10
1.12208e-05
-1.48458e-09
1.12181e-05
-2.91658e-09
1.12129e-05
-5.71405e-09
1.1203e-05
-1.11473e-08
1.11836e-05
-2.18556e-08
1.11456e-05
-4.32578e-08
1.10713e-05
-8.62969e-08
1.09253e-05
-1.73827e-07
1.06387e-05
-3.53002e-07
1.00632e-05
-7.14391e-07
9.19996e-06
-1.40603e-06
-1.46848e-06
9.23629e-06
1.12235e-05
-2.19257e-18
1.12235e-05
-7.68521e-18
1.12235e-05
-1.43931e-17
1.12235e-05
-1.96859e-17
1.12235e-05
-2.77851e-17
1.12235e-05
-3.89333e-17
1.12235e-05
-5.4007e-17
1.12235e-05
-7.45035e-17
1.12235e-05
-1.02734e-16
1.12235e-05
-1.42427e-16
1.12235e-05
-1.98618e-16
1.12235e-05
-2.78374e-16
1.12235e-05
-3.9142e-16
1.12235e-05
-5.51561e-16
1.12235e-05
-7.78395e-16
1.12235e-05
-1.10039e-15
1.12235e-05
-1.55929e-15
1.12235e-05
-2.21732e-15
1.12235e-05
-3.16694e-15
1.12235e-05
-4.54548e-15
1.12235e-05
-6.55801e-15
1.12235e-05
-9.51213e-15
1.12235e-05
-1.38701e-14
1.12235e-05
-2.0327e-14
1.12235e-05
-2.99271e-14
1.12235e-05
-4.42351e-14
1.12235e-05
-6.55878e-14
1.12235e-05
-9.7468e-14
1.12235e-05
-1.45052e-13
1.12235e-05
-2.15996e-13
1.12235e-05
-3.21593e-13
1.12235e-05
-4.78519e-13
1.12235e-05
-7.11507e-13
1.12235e-05
-1.05735e-12
1.12235e-05
-1.57071e-12
1.12235e-05
-2.33247e-12
1.12235e-05
-3.46179e-12
1.12235e-05
-5.13343e-12
1.12235e-05
-7.60331e-12
1.12234e-05
-1.12733e-11
1.12234e-05
-1.69472e-11
1.12234e-05
-2.64528e-11
1.12234e-05
-4.353e-11
1.12233e-05
-7.55896e-11
1.12232e-05
-1.37449e-10
1.1223e-05
-2.58567e-10
1.12225e-05
-4.97327e-10
1.12216e-05
-9.6837e-10
1.12198e-05
-1.8942e-09
1.12162e-05
-3.70159e-09
1.12093e-05
-7.20567e-09
1.1196e-05
-1.40014e-08
1.11706e-05
-2.74945e-08
1.11204e-05
-5.45856e-08
1.10205e-05
-1.09287e-07
1.0821e-05
-2.20981e-07
1.04179e-05
-4.52878e-07
9.77069e-06
-8.79314e-07
9.00695e-06
-1.59176e-06
-1.54319e-06
9.12362e-06
1.12235e-05
-1.94604e-18
1.12235e-05
-7.6035e-18
1.12235e-05
-1.42915e-17
1.12235e-05
-1.97845e-17
1.12235e-05
-2.80833e-17
1.12235e-05
-3.94048e-17
1.12235e-05
-5.4765e-17
1.12235e-05
-7.60347e-17
1.12235e-05
-1.05657e-16
1.12235e-05
-1.47439e-16
1.12235e-05
-2.0685e-16
1.12235e-05
-2.91338e-16
1.12235e-05
-4.11541e-16
1.12235e-05
-5.82623e-16
1.12235e-05
-8.26788e-16
1.12235e-05
-1.1762e-15
1.12235e-05
-1.67827e-15
1.12235e-05
-2.40317e-15
1.12235e-05
-3.45558e-15
1.12235e-05
-4.99235e-15
1.12235e-05
-7.24814e-15
1.12235e-05
-1.05776e-14
1.12235e-05
-1.55168e-14
1.12235e-05
-2.28765e-14
1.12235e-05
-3.38785e-14
1.12235e-05
-5.03576e-14
1.12235e-05
-7.50582e-14
1.12235e-05
-1.12075e-13
1.12235e-05
-1.675e-13
1.12235e-05
-2.50355e-13
1.12235e-05
-3.73995e-13
1.12235e-05
-5.58264e-13
1.12235e-05
-8.32774e-13
1.12235e-05
-1.24176e-12
1.12235e-05
-1.85106e-12
1.12235e-05
-2.75812e-12
1.12235e-05
-4.10628e-12
1.12235e-05
-6.10528e-12
1.12234e-05
-9.06417e-12
1.12234e-05
-1.34895e-11
1.12234e-05
-2.04362e-11
1.12234e-05
-3.22376e-11
1.12234e-05
-5.35841e-11
1.12233e-05
-9.38443e-11
1.12231e-05
-1.71667e-10
1.12228e-05
-3.2405e-10
1.12222e-05
-6.23878e-10
1.1221e-05
-1.21317e-09
1.12185e-05
-2.365e-09
1.12138e-05
-4.59644e-09
1.12047e-05
-8.90378e-09
1.11874e-05
-1.72864e-08
1.11529e-05
-3.4136e-08
1.10843e-05
-6.79826e-08
1.09479e-05
-1.36494e-07
1.06784e-05
-2.76488e-07
1.01363e-05
-5.69554e-07
9.35506e-06
-1.05362e-06
9.15291e-06
-1.45685e-06
-1.47666e-06
9.12967e-06
1.12235e-05
-2.04831e-18
1.12235e-05
-7.41059e-18
1.12235e-05
-1.3895e-17
1.12235e-05
-1.95718e-17
1.12235e-05
-2.80244e-17
1.12235e-05
-3.93628e-17
1.12235e-05
-5.4976e-17
1.12235e-05
-7.67716e-17
1.12235e-05
-1.07425e-16
1.12235e-05
-1.50985e-16
1.12235e-05
-2.13227e-16
1.12235e-05
-3.01822e-16
1.12235e-05
-4.28517e-16
1.12235e-05
-6.09968e-16
1.12235e-05
-8.70718e-16
1.12235e-05
-1.24659e-15
1.12235e-05
-1.79021e-15
1.12235e-05
-2.58025e-15
1.12235e-05
-3.73437e-15
1.12235e-05
-5.42854e-15
1.12235e-05
-7.92879e-15
1.12235e-05
-1.16383e-14
1.12235e-05
-1.71701e-14
1.12235e-05
-2.54545e-14
1.12235e-05
-3.78975e-14
1.12235e-05
-5.66136e-14
1.12235e-05
-8.47711e-14
1.12235e-05
-1.27101e-13
1.12235e-05
-1.90651e-13
1.12235e-05
-2.85894e-13
1.12235e-05
-4.28398e-13
1.12235e-05
-6.41419e-13
1.12235e-05
-9.59836e-13
1.12235e-05
-1.43593e-12
1.12235e-05
-2.14763e-12
1.12235e-05
-3.21021e-12
1.12235e-05
-4.79287e-12
1.12234e-05
-7.14285e-12
1.12234e-05
-1.06284e-11
1.12234e-05
-1.58804e-11
1.12234e-05
-2.42451e-11
1.12234e-05
-3.86269e-11
1.12233e-05
-6.48061e-11
1.12232e-05
-1.14356e-10
1.1223e-05
-2.1024e-10
1.12226e-05
-3.97948e-10
1.12218e-05
-7.66604e-10
1.12201e-05
-1.48857e-09
1.1217e-05
-2.89168e-09
1.12108e-05
-5.59239e-09
1.11991e-05
-1.07955e-08
1.11765e-05
-2.10507e-08
1.1132e-05
-4.16201e-08
1.10447e-05
-8.30723e-08
1.08714e-05
-1.67503e-07
1.05256e-05
-3.41262e-07
9.85697e-06
-6.93083e-07
8.99681e-06
-1.23639e-06
9.02276e-06
-1.32195e-06
-1.39448e-06
9.09421e-06
1.12235e-05
-2.19339e-18
1.12235e-05
-7.02372e-18
1.12235e-05
-1.32644e-17
1.12235e-05
-1.9041e-17
1.12235e-05
-2.75667e-17
1.12235e-05
-3.88336e-17
1.12235e-05
-5.45682e-17
1.12235e-05
-7.67546e-17
1.12235e-05
-1.08122e-16
1.12235e-05
-1.52992e-16
1.12235e-05
-2.17269e-16
1.12235e-05
-3.09354e-16
1.12235e-05
-4.41664e-16
1.12235e-05
-6.3237e-16
1.12235e-05
-9.08108e-16
1.12235e-05
-1.30807e-15
1.12235e-05
-1.89046e-15
1.12235e-05
-2.74187e-15
1.12235e-05
-3.99236e-15
1.12235e-05
-5.838e-15
1.12235e-05
-8.57626e-15
1.12235e-05
-1.26596e-14
1.12235e-05
-1.87778e-14
1.12235e-05
-2.79805e-14
1.12235e-05
-4.18571e-14
1.12235e-05
-6.28022e-14
1.12235e-05
-9.44107e-14
1.12235e-05
-1.42059e-13
1.12235e-05
-2.13775e-13
1.12235e-05
-3.21534e-13
1.12235e-05
-4.83226e-13
1.12235e-05
-7.25681e-13
1.12235e-05
-1.08929e-12
1.12235e-05
-1.63475e-12
1.12235e-05
-2.45262e-12
1.12235e-05
-3.67663e-12
1.12235e-05
-5.50266e-12
1.12234e-05
-8.21706e-12
1.12234e-05
-1.22527e-11
1.12234e-05
-1.83834e-11
1.12234e-05
-2.82786e-11
1.12234e-05
-4.54626e-11
1.12233e-05
-7.69287e-11
1.12232e-05
-1.36689e-10
1.12229e-05
-2.52498e-10
1.12223e-05
-4.79133e-10
1.12213e-05
-9.23405e-10
1.12191e-05
-1.7902e-09
1.12151e-05
-3.46426e-09
1.12073e-05
-6.67285e-09
1.11924e-05
-1.28671e-08
1.11633e-05
-2.52265e-08
1.11058e-05
-5.00327e-08
1.09917e-05
-1.00182e-07
1.07637e-05
-2.02768e-07
1.03039e-05
-4.16318e-07
9.57039e-06
-8.13663e-07
8.81044e-06
-1.40703e-06
8.97434e-06
-1.34328e-06
-1.27402e-06
9.03555e-06
1.12235e-05
-1.84697e-18
1.12235e-05
-6.79741e-18
1.12235e-05
-1.27055e-17
1.12235e-05
-1.84385e-17
1.12235e-05
-2.69064e-17
1.12235e-05
-3.8067e-17
1.12235e-05
-5.35572e-17
1.12235e-05
-7.56197e-17
1.12235e-05
-1.07402e-16
1.12235e-05
-1.53009e-16
1.12235e-05
-2.18733e-16
1.12235e-05
-3.13492e-16
1.12235e-05
-4.50424e-16
1.12235e-05
-6.48915e-16
1.12235e-05
-9.37374e-16
1.12235e-05
-1.35826e-15
1.12235e-05
-1.97443e-15
1.12235e-05
-2.88051e-15
1.12235e-05
-4.21863e-15
1.12235e-05
-6.20456e-15
1.12235e-05
-9.16645e-15
1.12235e-05
-1.36048e-14
1.12235e-05
-2.02833e-14
1.12235e-05
-3.03657e-14
1.12235e-05
-4.56168e-14
1.12235e-05
-6.87016e-14
1.12235e-05
-1.03628e-13
1.12235e-05
-1.56409e-13
1.12235e-05
-2.36046e-13
1.12235e-05
-3.56035e-13
1.12235e-05
-5.36622e-13
1.12235e-05
-8.08262e-13
1.12235e-05
-1.2169e-12
1.12235e-05
-1.83174e-12
1.12235e-05
-2.75594e-12
1.12235e-05
-4.14153e-12
1.12234e-05
-6.211e-12
1.12234e-05
-9.29019e-12
1.12234e-05
-1.38811e-11
1.12234e-05
-2.09154e-11
1.12234e-05
-3.24073e-11
1.12234e-05
-5.25386e-11
1.12233e-05
-8.96339e-11
1.12231e-05
-1.60351e-10
1.12227e-05
-2.97617e-10
1.1222e-05
-5.66102e-10
1.12206e-05
-1.09107e-09
1.1218e-05
-2.1104e-09
1.12128e-05
-4.06645e-09
1.12031e-05
-7.81158e-09
1.11844e-05
-1.50859e-08
1.11472e-05
-2.97355e-08
1.10732e-05
-5.91877e-08
1.09261e-05
-1.18873e-07
1.06343e-05
-2.41211e-07
1.0045e-05
-4.981e-07
9.21733e-06
-9.27583e-07
8.98297e-06
-1.29691e-06
8.96739e-06
-1.30804e-06
-1.28162e-06
8.9086e-06
1.12235e-05
-1.85172e-18
1.12235e-05
-6.47021e-18
1.12235e-05
-1.21285e-17
1.12235e-05
-1.76658e-17
1.12235e-05
-2.57187e-17
1.12235e-05
-3.65039e-17
1.12235e-05
-5.1918e-17
1.12235e-05
-7.38047e-17
1.12235e-05
-1.05242e-16
1.12235e-05
-1.50996e-16
1.12235e-05
-2.17507e-16
1.12235e-05
-3.14181e-16
1.12235e-05
-4.5445e-16
1.12235e-05
-6.58742e-16
1.12235e-05
-9.57156e-16
1.12235e-05
-1.39463e-15
1.12235e-05
-2.03859e-15
1.12235e-05
-2.99046e-15
1.12235e-05
-4.40397e-15
1.12235e-05
-6.51309e-15
1.12235e-05
-9.6753e-15
1.12235e-05
-1.44361e-14
1.12235e-05
-2.16273e-14
1.12235e-05
-3.25166e-14
1.12235e-05
-4.90289e-14
1.12235e-05
-7.40774e-14
1.12235e-05
-1.12056e-13
1.12235e-05
-1.69577e-13
1.12235e-05
-2.56587e-13
1.12235e-05
-3.88053e-13
1.12235e-05
-5.86523e-13
1.12235e-05
-8.85993e-13
1.12235e-05
-1.33779e-12
1.12235e-05
-2.01923e-12
1.12235e-05
-3.04553e-12
1.12235e-05
-4.58618e-12
1.12234e-05
-6.88908e-12
1.12234e-05
-1.03183e-11
1.12234e-05
-1.54472e-11
1.12234e-05