/*--------------------------------*- C++ -*----------------------------------*\
  =========                 |
  \\      /  F ield         | OpenFOAM: The Open Source CFD Toolbox
   \\    /   O peration     | Website:  https://openfoam.org
    \\  /    A nd           | Version:  9
     \\/     M anipulation  |
\*---------------------------------------------------------------------------*/
FoamFile
{
    format      ascii;
    class       volVectorField;
    location    "0.004";
    object      U;
}
// * * * * * * * * * * * * * * * * * * * * * * * * * * * * * * * * * * * * * //

dimensions      [0 1 -1 0 0 0 0];

internalField   nonuniform List<vector> 
36400
(
(165.65 -6.69882e-11 0)
(165.65 -1.73585e-10 0)
(165.65 -2.31346e-10 0)
(165.65 -2.82031e-10 0)
(165.65 -3.72002e-10 0)
(165.65 -4.81774e-10 0)
(165.65 -6.19631e-10 0)
(165.65 -7.93368e-10 0)
(165.65 -1.01259e-09 0)
(165.65 -1.29384e-09 0)
(165.65 -1.65687e-09 0)
(165.65 -2.12266e-09 0)
(165.65 -2.72683e-09 0)
(165.65 -3.51916e-09 0)
(165.65 -4.56318e-09 0)
(165.65 -5.94198e-09 0)
(165.65 -7.76203e-09 0)
(165.65 -1.01643e-08 0)
(165.65 -1.33244e-08 0)
(165.65 -1.74574e-08 0)
(165.65 -2.28193e-08 0)
(165.65 -2.97361e-08 0)
(165.65 -3.86723e-08 0)
(165.65 -5.0275e-08 0)
(165.65 -6.54218e-08 0)
(165.65 -8.52905e-08 0)
(165.65 -1.11441e-07 0)
(165.65 -1.45951e-07 0)
(165.65 -1.91668e-07 0)
(165.65 -2.52577e-07 0)
(165.65 -3.33886e-07 0)
(165.65 -4.42024e-07 0)
(165.65 -5.84932e-07 0)
(165.65 -7.72323e-07 0)
(165.65 -1.01736e-06 0)
(165.65 -1.34064e-06 0)
(165.65 -1.77426e-06 0)
(165.65 -2.36578e-06 0)
(165.65 -3.18242e-06 0)
(165.65 -4.31683e-06 0)
(165.65 -5.89578e-06 0)
(165.65 -8.09221e-06 0)
(165.65 -1.11375e-05 0)
(165.65 -1.53305e-05 0)
(165.65 -2.10707e-05 0)
(165.65 -2.9017e-05 0)
(165.65 -4.06284e-05 0)
(165.65 -5.97729e-05 0)
(165.649 -9.49766e-05 0)
(165.649 -0.000162664 0)
(165.648 -0.000295164 0)
(165.646 -0.000556758 0)
(165.643 -0.00107465 0)
(165.636 -0.00210138 0)
(165.622 -0.00413976 0)
(165.593 -0.00817786 0)
(165.536 -0.0162681 0)
(165.42 -0.0318787 0)
(165.184 -0.0684941 0)
(164.719 -0.0926595 0)
(165.65 -1.01931e-10 0)
(165.65 -2.77038e-10 0)
(165.65 -3.65712e-10 0)
(165.65 -4.22383e-10 0)
(165.65 -5.26898e-10 0)
(165.65 -6.67389e-10 0)
(165.65 -8.50486e-10 0)
(165.65 -1.08429e-09 0)
(165.65 -1.38426e-09 0)
(165.65 -1.77389e-09 0)
(165.65 -2.2786e-09 0)
(165.65 -2.93058e-09 0)
(165.65 -3.77946e-09 0)
(165.65 -4.89332e-09 0)
(165.65 -6.36516e-09 0)
(165.65 -8.31735e-09 0)
(165.65 -1.09077e-08 0)
(165.65 -1.43368e-08 0)
(165.65 -1.88433e-08 0)
(165.65 -2.47102e-08 0)
(165.65 -3.22879e-08 0)
(165.65 -4.20593e-08 0)
(165.65 -5.47164e-08 0)
(165.65 -7.12183e-08 0)
(165.65 -9.28785e-08 0)
(165.65 -1.21449e-07 0)
(165.65 -1.59211e-07 0)
(165.65 -2.09208e-07 0)
(165.65 -2.75751e-07 0)
(165.65 -3.64864e-07 0)
(165.65 -4.84488e-07 0)
(165.65 -6.4507e-07 0)
(165.65 -8.59991e-07 0)
(165.65 -1.14618e-06 0)
(165.65 -1.52663e-06 0)
(165.65 -2.03457e-06 0)
(165.65 -2.71817e-06 0)
(165.65 -3.64863e-06 0)
(165.65 -4.92993e-06 0)
(165.65 -6.70394e-06 0)
(165.65 -9.15781e-06 0)
(165.65 -1.2545e-05 0)
(165.65 -1.72175e-05 0)
(165.65 -2.36691e-05 0)
(165.65 -3.26433e-05 0)
(165.65 -4.54108e-05 0)
(165.65 -6.4699e-05 0)
(165.65 -9.85737e-05 0)
(165.649 -0.000166342 0)
(165.649 -0.000301975 0)
(165.648 -0.000573774 0)
(165.645 -0.00111764 0)
(165.641 -0.00220527 0)
(165.632 -0.00437845 0)
(165.614 -0.00872144 0)
(165.579 -0.017372 0)
(165.507 -0.0348135 0)
(165.362 -0.0685751 0)
(165.067 -0.145863 0)
(164.418 -0.239314 0)
(165.65 -7.3298e-11 0)
(165.65 -2.398e-10 0)
(165.65 -3.55241e-10 0)
(165.65 -4.18671e-10 0)
(165.65 -5.29907e-10 0)
(165.65 -6.7296e-10 0)
(165.65 -8.53102e-10 0)
(165.65 -1.08459e-09 0)
(165.65 -1.38698e-09 0)
(165.65 -1.78165e-09 0)
(165.65 -2.29645e-09 0)
(165.65 -2.96681e-09 0)
(165.65 -3.84312e-09 0)
(165.65 -4.99507e-09 0)
(165.65 -6.52035e-09 0)
(165.65 -8.55166e-09 0)
(165.65 -1.12599e-08 0)
(165.65 -1.48593e-08 0)
(165.65 -1.96019e-08 0)
(165.65 -2.57744e-08 0)
(165.65 -3.3752e-08 0)
(165.65 -4.40741e-08 0)
(165.65 -5.75007e-08 0)
(165.65 -7.50776e-08 0)
(165.65 -9.82643e-08 0)
(165.65 -1.29044e-07 0)
(165.65 -1.70013e-07 0)
(165.65 -2.24634e-07 0)
(165.65 -2.97907e-07 0)
(165.65 -3.96769e-07 0)
(165.65 -5.30447e-07 0)
(165.65 -7.11721e-07 0)
(165.65 -9.57596e-07 0)
(165.65 -1.29101e-06 0)
(165.65 -1.74417e-06 0)
(165.65 -2.36132e-06 0)
(165.65 -3.20186e-06 0)
(165.65 -4.35007e-06 0)
(165.65 -5.93173e-06 0)
(165.65 -8.12066e-06 0)
(165.65 -1.11422e-05 0)
(165.65 -1.52974e-05 0)
(165.65 -2.10142e-05 0)
(165.65 -2.8953e-05 0)
(165.65 -4.02583e-05 0)
(165.65 -5.70946e-05 0)
(165.65 -8.46224e-05 0)
(165.649 -0.000140043 0)
(165.649 -0.000257667 0)
(165.648 -0.000499701 0)
(165.647 -0.000991888 0)
(165.644 -0.00198661 0)
(165.638 -0.00399177 0)
(165.627 -0.00802488 0)
(165.604 -0.0161336 0)
(165.558 -0.032381 0)
(165.465 -0.0653062 0)
(165.277 -0.12981 0)
(164.897 -0.275525 0)
(164.029 -0.472883 0)
(165.65 -6.04091e-11 0)
(165.65 -2.10386e-10 0)
(165.65 -3.32244e-10 0)
(165.65 -3.92863e-10 0)
(165.65 -5.01446e-10 0)
(165.65 -6.41251e-10 0)
(165.65 -8.15623e-10 0)
(165.65 -1.04121e-09 0)
(165.65 -1.33802e-09 0)
(165.65 -1.73045e-09 0)
(165.65 -2.24601e-09 0)
(165.65 -2.92149e-09 0)
(165.65 -3.80995e-09 0)
(165.65 -4.98668e-09 0)
(165.65 -6.55158e-09 0)
(165.65 -8.64278e-09 0)
(165.65 -1.14439e-08 0)
(165.65 -1.51892e-08 0)
(165.65 -2.01527e-08 0)
(165.65 -2.66461e-08 0)
(165.65 -3.50843e-08 0)
(165.65 -4.60685e-08 0)
(165.65 -6.04341e-08 0)
(165.65 -7.93342e-08 0)
(165.65 -1.04398e-07 0)
(165.65 -1.37902e-07 0)
(165.65 -1.82907e-07 0)
(165.65 -2.43531e-07 0)
(165.65 -3.25635e-07 0)
(165.65 -4.37411e-07 0)
(165.65 -5.89912e-07 0)
(165.65 -7.98799e-07 0)
(165.65 -1.08599e-06 0)
(165.65 -1.48248e-06 0)
(165.65 -2.03258e-06 0)
(165.65 -2.79658e-06 0)
(165.65 -3.85376e-06 0)
(165.65 -5.31176e-06 0)
(165.65 -7.32745e-06 0)
(165.65 -1.01224e-05 0)
(165.65 -1.39921e-05 0)
(165.65 -1.93335e-05 0)
(165.65 -2.67175e-05 0)
(165.65 -3.70712e-05 0)
(165.65 -5.21683e-05 0)
(165.65 -7.60009e-05 0)
(165.65 -0.000119686 0)
(165.649 -0.000215392 0)
(165.649 -0.000417522 0)
(165.648 -0.000833808 0)
(165.646 -0.00168074 0)
(165.642 -0.00339405 0)
(165.634 -0.00684925 0)
(165.618 -0.0138035 0)
(165.586 -0.0278006 0)
(165.522 -0.0558849 0)
(165.393 -0.112877 0)
(165.131 -0.2249 0)
(164.601 -0.478269 0)
(163.338 -0.823301 0)
(165.65 -5.18467e-11 0)
(165.65 -1.8849e-10 0)
(165.65 -3.07555e-10 0)
(165.65 -3.69576e-10 0)
(165.65 -4.72227e-10 0)
(165.65 -6.07918e-10 0)
(165.65 -7.78343e-10 0)
(165.65 -9.99827e-10 0)
(165.65 -1.29402e-09 0)
(165.65 -1.68601e-09 0)
(165.65 -2.20347e-09 0)
(165.65 -2.88775e-09 0)
(165.65 -3.79302e-09 0)
(165.65 -4.99936e-09 0)
(165.65 -6.61025e-09 0)
(165.65 -8.76786e-09 0)
(165.65 -1.16681e-08 0)
(165.65 -1.55681e-08 0)
(165.65 -2.07734e-08 0)
(165.65 -2.76397e-08 0)
(165.65 -3.66445e-08 0)
(165.65 -4.84752e-08 0)
(165.65 -6.40868e-08 0)
(165.65 -8.47925e-08 0)
(165.65 -1.12448e-07 0)
(165.65 -1.49706e-07 0)
(165.65 -2.0026e-07 0)
(165.65 -2.69158e-07 0)
(165.65 -3.63489e-07 0)
(165.65 -4.93241e-07 0)
(165.65 -6.72082e-07 0)
(165.65 -9.1969e-07 0)
(165.65 -1.26477e-06 0)
(165.65 -1.74897e-06 0)
(165.65 -2.43264e-06 0)
(165.65 -3.39921e-06 0)
(165.65 -4.75943e-06 0)
(165.65 -6.66021e-06 0)
(165.65 -9.30742e-06 0)
(165.65 -1.29941e-05 0)
(165.65 -1.81259e-05 0)
(165.65 -2.52608e-05 0)
(165.65 -3.52144e-05 0)
(165.65 -4.93814e-05 0)
(165.65 -7.08053e-05 0)
(165.65 -0.000107583 0)
(165.649 -0.000184303 0)
(165.649 -0.000349731 0)
(165.648 -0.000693672 0)
(165.647 -0.00139745 0)
(165.644 -0.00282576 0)
(165.638 -0.00571114 0)
(165.626 -0.0115262 0)
(165.603 -0.0232275 0)
(165.556 -0.0467853 0)
(165.461 -0.0940664 0)
(165.27 -0.190065 0)
(164.88 -0.379026 0)
(164.092 -0.808056 0)
(162.139 -1.38885 0)
(165.65 -4.46535e-11 0)
(165.65 -1.69656e-10 0)
(165.65 -2.84993e-10 0)
(165.65 -3.48318e-10 0)
(165.65 -4.47197e-10 0)
(165.65 -5.8042e-10 0)
(165.65 -7.48955e-10 0)
(165.65 -9.70769e-10 0)
(165.65 -1.2675e-09 0)
(165.65 -1.66184e-09 0)
(165.65 -2.18867e-09 0)
(165.65 -2.89108e-09 0)
(165.65 -3.82891e-09 0)
(165.65 -5.08419e-09 0)
(165.65 -6.76702e-09 0)
(165.65 -9.02614e-09 0)
(165.65 -1.20709e-08 0)
(165.65 -1.61824e-08 0)
(165.65 -2.17111e-08 0)
(165.65 -2.90869e-08 0)
(165.65 -3.88845e-08 0)
(165.65 -5.19184e-08 0)
(165.65 -6.93318e-08 0)
(165.65 -9.26949e-08 0)
(165.65 -1.24207e-07 0)
(165.65 -1.67027e-07 0)
(165.65 -2.25689e-07 0)
(165.65 -3.06576e-07 0)
(165.65 -4.18629e-07 0)
(165.65 -5.74491e-07 0)
(165.65 -7.91851e-07 0)
(165.65 -1.09631e-06 0)
(165.65 -1.52583e-06 0)
(165.65 -2.1362e-06 0)
(165.65 -3.00907e-06 0)
(165.65 -4.26009e-06 0)
(165.65 -6.04688e-06 0)
(165.65 -8.5797e-06 0)
(165.65 -1.21449e-05 0)
(165.65 -1.71457e-05 0)
(165.65 -2.41547e-05 0)
(165.65 -3.39879e-05 0)
(165.65 -4.78875e-05 0)
(165.65 -6.81708e-05 0)
(165.65 -0.000100727 0)
(165.65 -0.000163737 0)
(165.649 -0.000298773 0)
(165.649 -0.000580055 0)
(165.648 -0.00115635 0)
(165.645 -0.00232661 0)
(165.641 -0.00469186 0)
(165.632 -0.0094605 0)
(165.614 -0.0190608 0)
(165.578 -0.0383624 0)
(165.505 -0.0771916 0)
(165.359 -0.155086 0)
(165.065 -0.313305 0)
(164.462 -0.625277 0)
(163.239 -1.33533 0)
(160.126 -2.30312 0)
(165.65 -4.17424e-11 0)
(165.65 -1.54883e-10 0)
(165.65 -2.64866e-10 0)
(165.65 -3.26934e-10 0)
(165.65 -4.25232e-10 0)
(165.65 -5.58694e-10 0)
(165.65 -7.29845e-10 0)
(165.65 -9.57189e-10 0)
(165.65 -1.25994e-09 0)
(165.65 -1.66441e-09 0)
(165.65 -2.20949e-09 0)
(165.65 -2.9406e-09 0)
(165.65 -3.9259e-09 0)
(165.65 -5.25303e-09 0)
(165.65 -7.04388e-09 0)
(165.65 -9.4548e-09 0)
(165.65 -1.27075e-08 0)
(165.65 -1.71103e-08 0)
(165.65 -2.30732e-08 0)
(165.65 -3.11291e-08 0)
(165.65 -4.19882e-08 0)
(165.65 -5.66476e-08 0)
(165.65 -7.65147e-08 0)
(165.65 -1.03539e-07 0)
(165.65 -1.40437e-07 0)
(165.65 -1.91079e-07 0)
(165.65 -2.61105e-07 0)
(165.65 -3.58677e-07 0)
(165.65 -4.95398e-07 0)
(165.65 -6.87793e-07 0)
(165.65 -9.59437e-07 0)
(165.65 -1.34447e-06 0)
(165.65 -1.89329e-06 0)
(165.65 -2.68008e-06 0)
(165.65 -3.81419e-06 0)
(165.65 -5.45407e-06 0)
(165.65 -7.82172e-06 0)
(165.65 -1.12189e-05 0)
(165.65 -1.60549e-05 0)
(165.65 -2.29014e-05 0)
(165.65 -3.25788e-05 0)
(165.65 -4.62903e-05 0)
(165.65 -6.59908e-05 0)
(165.65 -9.58904e-05 0)
(165.65 -0.000148981 0)
(165.649 -0.000258897 0)
(165.649 -0.000486693 0)
(165.648 -0.000952161 0)
(165.646 -0.00189622 0)
(165.643 -0.00380253 0)
(165.636 -0.00764145 0)
(165.622 -0.01536 0)
(165.593 -0.0308706 0)
(165.536 -0.0620225 0)
(165.422 -0.12465 0)
(165.192 -0.250242 0)
(164.729 -0.505381 0)
(163.778 -1.00948 0)
(161.838 -2.1558 0)
(156.877 -3.76672 0)
(165.65 -3.88022e-11 0)
(165.65 -1.44664e-10 0)
(165.65 -2.50478e-10 0)
(165.65 -3.11412e-10 0)
(165.65 -4.09022e-10 0)
(165.65 -5.46243e-10 0)
(165.65 -7.23767e-10 0)
(165.65 -9.58211e-10 0)
(165.65 -1.27023e-09 0)
(165.65 -1.69151e-09 0)
(165.65 -2.26167e-09 0)
(165.65 -3.03352e-09 0)
(165.65 -4.08296e-09 0)
(165.65 -5.50953e-09 0)
(165.65 -7.4462e-09 0)
(165.65 -1.00628e-08 0)
(165.65 -1.35963e-08 0)
(165.65 -1.83875e-08 0)
(165.65 -2.49173e-08 0)
(165.65 -3.38445e-08 0)
(165.65 -4.60599e-08 0)
(165.65 -6.28061e-08 0)
(165.65 -8.58465e-08 0)
(165.65 -1.17652e-07 0)
(165.65 -1.61664e-07 0)
(165.65 -2.22767e-07 0)
(165.65 -3.08095e-07 0)
(165.65 -4.28149e-07 0)
(165.65 -5.98169e-07 0)
(165.65 -8.40133e-07 0)
(165.65 -1.18577e-06 0)
(165.65 -1.68103e-06 0)
(165.65 -2.393e-06 0)
(165.65 -3.42006e-06 0)
(165.65 -4.90771e-06 0)
(165.65 -7.07001e-06 0)
(165.65 -1.0213e-05 0)
(165.65 -1.47616e-05 0)
(165.65 -2.13003e-05 0)
(165.65 -3.06491e-05 0)
(165.65 -4.39915e-05 0)
(165.65 -6.31039e-05 0)
(165.65 -9.11996e-05 0)
(165.65 -0.000136636 0)
(165.65 -0.000225419 0)
(165.649 -0.000406607 0)
(165.648 -0.000773282 0)
(165.647 -0.00151319 0)
(165.644 -0.00300231 0)
(165.639 -0.00599523 0)
(165.628 -0.0120058 0)
(165.605 -0.0240698 0)
(165.561 -0.0482808 0)
(165.471 -0.0968621 0)
(165.29 -0.19447 0)
(164.926 -0.390154 0)
(164.193 -0.787706 0)
(162.683 -1.57478 0)
(159.596 -3.3561 0)
(151.834 -5.98486 0)
(165.65 -3.62877e-11 0)
(165.65 -1.39128e-10 0)
(165.65 -2.43029e-10 0)
(165.65 -3.03392e-10 0)
(165.65 -4.02311e-10 0)
(165.65 -5.44521e-10 0)
(165.65 -7.30302e-10 0)
(165.65 -9.73431e-10 0)
(165.65 -1.29936e-09 0)
(165.65 -1.74202e-09 0)
(165.65 -2.34378e-09 0)
(165.65 -3.16766e-09 0)
(165.65 -4.29863e-09 0)
(165.65 -5.85043e-09 0)
(165.65 -7.96833e-09 0)
(165.65 -1.0841e-08 0)
(165.65 -1.4731e-08 0)
(165.65 -2.00211e-08 0)
(165.65 -2.72732e-08 0)
(165.65 -3.72894e-08 0)
(165.65 -5.11822e-08 0)
(165.65 -7.05101e-08 0)
(165.65 -9.74916e-08 0)
(165.65 -1.35265e-07 0)
(165.65 -1.88242e-07 0)
(165.65 -2.62696e-07 0)
(165.65 -3.67792e-07 0)
(165.65 -5.17113e-07 0)
(165.65 -7.30664e-07 0)
(165.65 -1.03765e-06 0)
(165.65 -1.48052e-06 0)
(165.65 -2.12079e-06 0)
(165.65 -3.04755e-06 0)
(165.65 -4.39094e-06 0)
(165.65 -6.34335e-06 0)
(165.65 -9.18969e-06 0)
(165.65 -1.33426e-05 0)
(165.65 -1.93853e-05 0)
(165.65 -2.81374e-05 0)
(165.65 -4.07621e-05 0)
(165.65 -5.89494e-05 0)
(165.65 -8.53293e-05 0)
(165.65 -0.000125437 0)
(165.65 -0.000196132 0)
(165.649 -0.000336309 0)
(165.649 -0.000616028 0)
(165.648 -0.00117598 0)
(165.646 -0.00229863 0)
(165.641 -0.00454882 0)
(165.633 -0.00905888 0)
(165.615 -0.0180998 0)
(165.58 -0.0362218 0)
(165.51 -0.0725408 0)
(165.369 -0.145309 0)
(165.087 -0.291309 0)
(164.517 -0.583708 0)
(163.369 -1.17716 0)
(161.005 -2.35307 0)
(156.168 -4.98575 0)
(144.709 -9.10951 0)
(165.65 -3.5507e-11 0)
(165.65 -1.3529e-10 0)
(165.65 -2.38847e-10 0)
(165.65 -3.00757e-10 0)
(165.65 -4.04363e-10 0)
(165.65 -5.52536e-10 0)
(165.65 -7.47121e-10 0)
(165.65 -1.00289e-09 0)
(165.65 -1.34715e-09 0)
(165.65 -1.81436e-09 0)
(165.65 -2.45476e-09 0)
(165.65 -3.34198e-09 0)
(165.65 -4.57124e-09 0)
(165.65 -6.26989e-09 0)
(165.65 -8.59876e-09 0)
(165.65 -1.17728e-08 0)
(165.65 -1.60924e-08 0)
(165.65 -2.19975e-08 0)
(165.65 -3.01468e-08 0)
(165.65 -4.15006e-08 0)
(165.65 -5.74286e-08 0)
(165.65 -7.98756e-08 0)
(165.65 -1.11616e-07 0)
(165.65 -1.56615e-07 0)
(165.65 -2.2052e-07 0)
(165.65 -3.1144e-07 0)
(165.65 -4.41233e-07 0)
(165.65 -6.27494e-07 0)
(165.65 -8.96315e-07 0)
(165.65 -1.28608e-06 0)
(165.65 -1.85288e-06 0)
(165.65 -2.67804e-06 0)
(165.65 -3.87908e-06 0)
(165.65 -5.62717e-06 0)
(165.65 -8.17506e-06 0)
(165.65 -1.18975e-05 0)
(165.65 -1.7341e-05 0)
(165.65 -2.52896e-05 0)
(165.65 -3.6865e-05 0)
(165.65 -5.36809e-05 0)
(165.65 -7.81006e-05 0)
(165.65 -0.000114106 0)
(165.65 -0.000171514 0)
(165.649 -0.000278256 0)
(165.649 -0.00048641 0)
(165.648 -0.000898203 0)
(165.647 -0.00171787 0)
(165.643 -0.00335474 0)
(165.637 -0.00662555 0)
(165.623 -0.0131657 0)
(165.597 -0.0262414 0)
(165.543 -0.0523602 0)
(165.436 -0.104476 0)
(165.221 -0.208535 0)
(164.789 -0.416471 0)
(163.919 -0.832183 0)
(162.163 -1.67436 0)
(158.555 -3.34152 0)
(151.236 -6.98748 0)
(135.58 -13.1092 0)
(165.65 -3.51491e-11 0)
(165.65 -1.31997e-10 0)
(165.65 -2.37047e-10 0)
(165.65 -3.03285e-10 0)
(165.65 -4.114e-10 0)
(165.65 -5.67273e-10 0)
(165.65 -7.72513e-10 0)
(165.65 -1.04319e-09 0)
(165.65 -1.40747e-09 0)
(165.65 -1.90429e-09 0)
(165.65 -2.59216e-09 0)
(165.65 -3.55317e-09 0)
(165.65 -4.89464e-09 0)
(165.65 -6.75631e-09 0)
(165.65 -9.32099e-09 0)
(165.65 -1.28371e-08 0)
(165.65 -1.7655e-08 0)
(165.65 -2.42907e-08 0)
(165.65 -3.35195e-08 0)
(165.65 -4.64861e-08 0)
(165.65 -6.48503e-08 0)
(165.65 -9.09977e-08 0)
(165.65 -1.28365e-07 0)
(165.65 -1.81916e-07 0)
(165.65 -2.58818e-07 0)
(165.65 -3.69485e-07 0)
(165.65 -5.29204e-07 0)
(165.65 -7.60635e-07 0)
(165.65 -1.09745e-06 0)
(165.65 -1.58937e-06 0)
(165.65 -2.30925e-06 0)
(165.65 -3.36299e-06 0)
(165.65 -4.9037e-06 0)
(165.65 -7.15433e-06 0)
(165.65 -1.0444e-05 0)
(165.65 -1.52602e-05 0)
(165.65 -2.23167e-05 0)
(165.65 -3.26482e-05 0)
(165.65 -4.77549e-05 0)
(165.65 -6.9815e-05 0)
(165.65 -0.000102084 0)
(165.65 -0.000150738 0)
(165.65 -0.000232172 0)
(165.649 -0.000384519 0)
(165.649 -0.000679588 0)
(165.647 -0.00126078 0)
(165.645 -0.00241378 0)
(165.64 -0.00470899 0)
(165.63 -0.00928152 0)
(165.61 -0.018403 0)
(165.57 -0.0365782 0)
(165.491 -0.0726744 0)
(165.332 -0.144204 0)
(165.013 -0.285966 0)
(164.374 -0.568024 0)
(163.088 -1.13164 0)
(160.493 -2.27243 0)
(155.203 -4.53283 0)
(144.575 -9.26794 0)
(126.01 -17.7823 0)
(165.65 -3.59107e-11 0)
(165.65 -1.32299e-10 0)
(165.65 -2.38603e-10 0)
(165.65 -3.08819e-10 0)
(165.65 -4.22483e-10 0)
(165.65 -5.87313e-10 0)
(165.65 -8.04634e-10 0)
(165.65 -1.09191e-09 0)
(165.65 -1.4793e-09 0)
(165.65 -2.01031e-09 0)
(165.65 -2.75203e-09 0)
(165.65 -3.7955e-09 0)
(165.65 -5.25789e-09 0)
(165.65 -7.29437e-09 0)
(165.65 -1.01141e-08 0)
(165.65 -1.40078e-08 0)
(165.65 -1.93893e-08 0)
(165.65 -2.68683e-08 0)
(165.65 -3.73588e-08 0)
(165.65 -5.2219e-08 0)
(165.65 -7.3435e-08 0)
(165.65 -1.03894e-07 0)
(165.65 -1.47805e-07 0)
(165.65 -2.11308e-07 0)
(165.65 -3.0338e-07 0)
(165.65 -4.37218e-07 0)
(165.65 -6.3229e-07 0)
(165.65 -9.17441e-07 0)
(165.65 -1.33553e-06 0)
(165.65 -1.94994e-06 0)
(165.65 -2.85372e-06 0)
(165.65 -4.18236e-06 0)
(165.65 -6.13242e-06 0)
(165.65 -8.99086e-06 0)
(165.65 -1.31815e-05 0)
(165.65 -1.93315e-05 0)
(165.65 -2.83614e-05 0)
(165.65 -4.16156e-05 0)
(165.65 -6.10572e-05 0)
(165.65 -8.95519e-05 0)
(165.65 -0.000131586 0)
(165.65 -0.000196712 0)
(165.649 -0.000309414 0)
(165.649 -0.000519046 0)
(165.648 -0.000923018 0)
(165.646 -0.00171596 0)
(165.643 -0.00328524 0)
(165.635 -0.00640364 0)
(165.621 -0.012607 0)
(165.592 -0.0249441 0)
(165.535 -0.0493976 0)
(165.42 -0.0977086 0)
(165.192 -0.192906 0)
(164.737 -0.379993 0)
(163.823 -0.753892 0)
(161.982 -1.50284 0)
(158.27 -3.01734 0)
(150.831 -6.0524 0)
(135.851 -11.9061 0)
(118.284 -21.6104 0)
(165.65 -3.67954e-11 0)
(165.65 -1.33814e-10 0)
(165.65 -2.42415e-10 0)
(165.65 -3.16672e-10 0)
(165.65 -4.38782e-10 0)
(165.65 -6.11002e-10 0)
(165.65 -8.38708e-10 0)
(165.65 -1.14312e-09 0)
(165.65 -1.55685e-09 0)
(165.65 -2.12663e-09 0)
(165.65 -2.92577e-09 0)
(165.65 -4.05487e-09 0)
(165.65 -5.64397e-09 0)
(165.65 -7.86715e-09 0)
(165.65 -1.09602e-08 0)
(165.65 -1.5262e-08 0)
(165.65 -2.1264e-08 0)
(165.65 -2.96884e-08 0)
(165.65 -4.16105e-08 0)
(165.65 -5.86277e-08 0)
(165.65 -8.30934e-08 0)
(165.65 -1.18468e-07 0)
(165.65 -1.69844e-07 0)
(165.65 -2.44726e-07 0)
(165.65 -3.54201e-07 0)
(165.65 -5.14709e-07 0)
(165.65 -7.50616e-07 0)
(165.65 -1.09807e-06 0)
(165.65 -1.61078e-06 0)
(165.65 -2.36816e-06 0)
(165.65 -3.48693e-06 0)
(165.65 -5.13748e-06 0)
(165.65 -7.56815e-06 0)
(165.65 -1.11434e-05 0)
(165.65 -1.64023e-05 0)
(165.65 -2.41414e-05 0)
(165.65 -3.55329e-05 0)
(165.65 -5.22966e-05 0)
(165.65 -7.69482e-05 0)
(165.65 -0.000113189 0)
(165.65 -0.000167239 0)
(165.65 -0.000253334 0)
(165.649 -0.000405058 0)
(165.649 -0.000687087 0)
(165.647 -0.00122897 0)
(165.645 -0.00228971 0)
(165.64 -0.00438427 0)
(165.629 -0.00853682 0)
(165.609 -0.0167789 0)
(165.568 -0.0331039 0)
(165.487 -0.0653251 0)
(165.327 -0.128669 0)
(165.009 -0.252558 0)
(164.373 -0.49855 0)
(163.092 -0.991638 0)
(160.512 -1.98183 0)
(155.296 -3.9726 0)
(145.298 -8.00552 0)
(126.548 -15.056 0)
(112.912 -22.5037 0)
(165.65 -3.68433e-11 0)
(165.65 -1.32969e-10 0)
(165.65 -2.4511e-10 0)
(165.65 -3.26865e-10 0)
(165.65 -4.56026e-10 0)
(165.65 -6.33939e-10 0)
(165.65 -8.71788e-10 0)
(165.65 -1.19294e-09 0)
(165.65 -1.63287e-09 0)
(165.65 -2.24476e-09 0)
(165.65 -3.10348e-09 0)
(165.65 -4.31873e-09 0)
(165.65 -6.03718e-09 0)
(165.65 -8.45342e-09 0)
(165.65 -1.1836e-08 0)
(165.65 -1.65757e-08 0)
(165.65 -2.3247e-08 0)
(165.65 -3.26997e-08 0)
(165.65 -4.61921e-08 0)
(165.65 -6.55885e-08 0)
(165.65 -9.36549e-08 0)
(165.65 -1.34495e-07 0)
(165.65 -1.942e-07 0)
(165.65 -2.81828e-07 0)
(165.65 -4.10877e-07 0)
(165.65 -6.01468e-07 0)
(165.65 -8.8354e-07 0)
(165.65 -1.3016e-06 0)
(165.65 -1.92176e-06 0)
(165.65 -2.84178e-06 0)
(165.65 -4.20549e-06 0)
(165.65 -6.22354e-06 0)
(165.65 -9.20502e-06 0)
(165.65 -1.36061e-05 0)
(165.65 -2.01026e-05 0)
(165.65 -2.96931e-05 0)
(165.65 -4.38494e-05 0)
(165.65 -6.47334e-05 0)
(165.65 -9.55075e-05 0)
(165.65 -0.000140908 0)
(165.65 -0.000209534 0)
(165.649 -0.000321485 0)
(165.649 -0.000520688 0)
(165.648 -0.000892009 0)
(165.646 -0.00160577 0)
(165.643 -0.00300163 0)
(165.635 -0.00575496 0)
(165.621 -0.0112018 0)
(165.593 -0.0219816 0)
(165.537 -0.0432517 0)
(165.425 -0.0850051 0)
(165.206 -0.166434 0)
(164.77 -0.325961 0)
(163.893 -0.645072 0)
(162.13 -1.28428 0)
(158.581 -2.57035 0)
(151.396 -5.13977 0)
(138.377 -10.2564 0)
(119.187 -18.5507 0)
(109.89 -21.5953 0)
(165.65 -3.66572e-11 0)
(165.65 -1.31163e-10 0)
(165.65 -2.44224e-10 0)
(165.65 -3.32155e-10 0)
(165.65 -4.66242e-10 0)
(165.65 -6.50911e-10 0)
(165.65 -8.99858e-10 0)
(165.65 -1.23826e-09 0)
(165.65 -1.70299e-09 0)
(165.65 -2.35449e-09 0)
(165.65 -3.273e-09 0)
(165.65 -4.57594e-09 0)
(165.65 -6.4223e-09 0)
(165.65 -9.03008e-09 0)
(165.65 -1.27088e-08 0)
(165.65 -1.79086e-08 0)
(165.65 -2.52897e-08 0)
(165.65 -3.5833e-08 0)
(165.65 -5.09948e-08 0)
(165.65 -7.29366e-08 0)
(165.65 -1.04878e-07 0)
(165.65 -1.51634e-07 0)
(165.65 -2.20405e-07 0)
(165.65 -3.21988e-07 0)
(165.65 -4.72562e-07 0)
(165.65 -6.9634e-07 0)
(165.65 -1.02944e-06 0)
(165.65 -1.52565e-06 0)
(165.65 -2.2649e-06 0)
(165.65 -3.3654e-06 0)
(165.65 -5.0013e-06 0)
(165.65 -7.42901e-06 0)
(165.65 -1.10274e-05 0)
(165.65 -1.63588e-05 0)
(165.65 -2.42573e-05 0)
(165.65 -3.59571e-05 0)
(165.65 -5.32764e-05 0)
(165.65 -7.88841e-05 0)
(165.65 -0.000116687 0)
(165.65 -0.000172716 0)
(165.649 -0.00025869 0)
(165.649 -0.000401569 0)
(165.649 -0.000657446 0)
(165.647 -0.00113649 0)
(165.645 -0.00205947 0)
(165.64 -0.00386577 0)
(165.63 -0.00742765 0)
(165.611 -0.0144638 0)
(165.572 -0.0283331 0)
(165.496 -0.0555264 0)
(165.346 -0.108458 0)
(165.052 -0.21111 0)
(164.462 -0.413882 0)
(163.278 -0.819392 0)
(160.897 -1.63253 0)
(156.112 -3.27206 0)
(146.522 -6.55887 0)
(130.098 -12.5759 0)
(113.772 -20.9993 0)
(109.216 -21.1967 0)
(165.65 -3.48583e-11 0)
(165.65 -1.28728e-10 0)
(165.65 -2.42218e-10 0)
(165.65 -3.33492e-10 0)
(165.65 -4.71629e-10 0)
(165.65 -6.61336e-10 0)
(165.65 -9.18626e-10 0)
(165.65 -1.27175e-09 0)
(165.65 -1.76039e-09 0)
(165.65 -2.44837e-09 0)
(165.65 -3.4244e-09 0)
(165.65 -4.8114e-09 0)
(165.65 -6.78094e-09 0)
(165.65 -9.57664e-09 0)
(165.65 -1.35514e-08 0)
(165.65 -1.92169e-08 0)
(165.65 -2.73249e-08 0)
(165.65 -3.89921e-08 0)
(165.65 -5.58802e-08 0)
(165.65 -8.04691e-08 0)
(165.65 -1.16466e-07 0)
(165.65 -1.69453e-07 0)
(165.65 -2.47841e-07 0)
(165.65 -3.64317e-07 0)
(165.65 -5.37971e-07 0)
(165.65 -7.97442e-07 0)
(165.65 -1.18553e-06 0)
(165.65 -1.76608e-06 0)
(165.65 -2.63398e-06 0)
(165.65 -3.92973e-06 0)
(165.65 -5.86088e-06 0)
(165.65 -8.73486e-06 0)
(165.65 -1.3009e-05 0)
(165.65 -1.9365e-05 0)
(165.65 -2.88165e-05 0)
(165.65 -4.28635e-05 0)
(165.65 -6.37139e-05 0)
(165.65 -9.46022e-05 0)
(165.65 -0.000140283 0)
(165.65 -0.000208391 0)
(165.649 -0.000314516 0)
(165.649 -0.000493567 0)
(165.648 -0.000816311 0)
(165.646 -0.00142353 0)
(165.643 -0.00259631 0)
(165.636 -0.0048929 0)
(165.623 -0.00941628 0)
(165.597 -0.0183241 0)
(165.546 -0.0357846 0)
(165.445 -0.0697386 0)
(165.248 -0.135409 0)
(164.858 -0.262815 0)
(164.075 -0.517173 0)
(162.501 -1.02648 0)
(159.334 -2.0488 0)
(152.968 -4.10384 0)
(140.754 -8.25494 0)
(121.9 -14.9273 0)
(109.659 -21.1011 0)
(109.57 -21.0922 0)
(165.65 -3.38068e-11 0)
(165.65 -1.26038e-10 0)
(165.65 -2.37998e-10 0)
(165.65 -3.32714e-10 0)
(165.65 -4.74137e-10 0)
(165.65 -6.6549e-10 0)
(165.65 -9.27194e-10 0)
(165.65 -1.29087e-09 0)
(165.65 -1.79989e-09 0)
(165.65 -2.52061e-09 0)
(165.65 -3.54832e-09 0)
(165.65 -5.01051e-09 0)
(165.65 -7.09577e-09 0)
(165.65 -1.00722e-08 0)
(165.65 -1.43342e-08 0)
(165.65 -2.04555e-08 0)
(165.65 -2.92807e-08 0)
(165.65 -4.20654e-08 0)
(165.65 -6.06853e-08 0)
(165.65 -8.79476e-08 0)
(165.65 -1.28074e-07 0)
(165.65 -1.87454e-07 0)
(165.65 -2.75776e-07 0)
(165.65 -4.07717e-07 0)
(165.65 -6.0543e-07 0)
(165.65 -9.02213e-07 0)
(165.65 -1.34791e-06 0)
(165.65 -2.01694e-06 0)
(165.65 -3.02004e-06 0)
(165.65 -4.52155e-06 0)
(165.65 -6.76521e-06 0)
(165.65 -1.01141e-05 0)
(165.65 -1.51114e-05 0)
(165.65 -2.25699e-05 0)
(165.65 -3.37002e-05 0)
(165.65 -5.02935e-05 0)
(165.65 -7.49818e-05 0)
(165.65 -0.000111614 0)
(165.65 -0.000165895 0)
(165.649 -0.0002474 0)
(165.649 -0.000376303 0)
(165.649 -0.000596631 0)
(165.647 -0.000996419 0)
(165.645 -0.00175177 0)
(165.641 -0.00321265 0)
(165.632 -0.00607293 0)
(165.615 -0.0116956 0)
(165.581 -0.0227258 0)
(165.513 -0.0442212 0)
(165.382 -0.085722 0)
(165.126 -0.165735 0)
(164.616 -0.32221 0)
(163.59 -0.63599 0)
(161.529 -1.26486 0)
(157.386 -2.52932 0)
(149.048 -5.06049 0)
(134.123 -10.0708 0)
(115.457 -17.2111 0)
(107.094 -19.9149 0)
(109.271 -20.4686 0)
(165.65 -3.56126e-11 0)
(165.65 -1.22289e-10 0)
(165.65 -2.29407e-10 0)
(165.65 -3.25962e-10 0)
(165.65 -4.69528e-10 0)
(165.65 -6.60478e-10 0)
(165.65 -9.24977e-10 0)
(165.65 -1.29663e-09 0)
(165.65 -1.82093e-09 0)
(165.65 -2.56809e-09 0)
(165.65 -3.63717e-09 0)
(165.65 -5.16366e-09 0)
(165.65 -7.3511e-09 0)
(165.65 -1.04936e-08 0)
(165.65 -1.50229e-08 0)
(165.65 -2.15727e-08 0)
(165.65 -3.10788e-08 0)
(165.65 -4.49357e-08 0)
(165.65 -6.5234e-08 0)
(165.65 -9.51132e-08 0)
(165.65 -1.39326e-07 0)
(165.65 -2.05087e-07 0)
(165.65 -3.03387e-07 0)
(165.65 -4.50925e-07 0)
(165.65 -6.72966e-07 0)
(165.65 -1.00755e-06 0)
(165.65 -1.51173e-06 0)
(165.65 -2.27077e-06 0)
(165.65 -3.41182e-06 0)
(165.65 -5.12421e-06 0)
(165.65 -7.69003e-06 0)
(165.65 -1.15315e-05 0)
(165.65 -1.72831e-05 0)
(165.65 -2.5897e-05 0)
(165.65 -3.87934e-05 0)
(165.65 -5.80706e-05 0)
(165.65 -8.68061e-05 0)
(165.65 -0.000129498 0)
(165.65 -0.000192902 0)
(165.649 -0.000288856 0)
(165.649 -0.000442738 0)
(165.648 -0.000708663 0)
(165.647 -0.00119417 0)
(165.644 -0.00211465 0)
(165.638 -0.00389699 0)
(165.627 -0.00738525 0)
(165.604 -0.0142293 0)
(165.56 -0.0276062 0)
(165.474 -0.053521 0)
(165.306 -0.103286 0)
(164.978 -0.199196 0)
(164.32 -0.389183 0)
(162.998 -0.769398 0)
(160.34 -1.53232 0)
(155.004 -3.06907 0)
(144.371 -6.15201 0)
(126.812 -11.7944 0)
(110.794 -18.697 0)
(106.396 -19.0669 0)
(108.72 -19.4027 0)
(165.65 -3.41223e-11 0)
(165.65 -1.16847e-10 0)
(165.65 -2.18957e-10 0)
(165.65 -3.15956e-10 0)
(165.65 -4.59672e-10 0)
(165.65 -6.49517e-10 0)
(165.65 -9.13364e-10 0)
(165.65 -1.28717e-09 0)
(165.65 -1.82077e-09 0)
(165.65 -2.58562e-09 0)
(165.65 -3.68423e-09 0)
(165.65 -5.26246e-09 0)
(165.65 -7.5362e-09 0)
(165.65 -1.08231e-08 0)
(165.65 -1.55876e-08 0)
(165.65 -2.25191e-08 0)
(165.65 -3.26401e-08 0)
(165.65 -4.74813e-08 0)
(165.65 -6.93401e-08 0)
(165.65 -1.01692e-07 0)
(165.65 -1.49817e-07 0)
(165.65 -2.21753e-07 0)
(165.65 -3.29767e-07 0)
(165.65 -4.92534e-07 0)
(165.65 -7.38362e-07 0)
(165.65 -1.10996e-06 0)
(165.65 -1.67149e-06 0)
(165.65 -2.51909e-06 0)
(165.65 -3.79644e-06 0)
(165.65 -5.71845e-06 0)
(165.65 -8.6068e-06 0)
(165.65 -1.29447e-05 0)
(165.65 -1.94602e-05 0)
(165.65 -2.92488e-05 0)
(165.65 -4.39447e-05 0)
(165.65 -6.59579e-05 0)
(165.65 -9.88176e-05 0)
(165.65 -0.000147689 0)
(165.649 -0.000220459 0)
(165.649 -0.000331509 0)
(165.649 -0.000511878 0)
(165.648 -0.000826508 0)
(165.646 -0.00140447 0)
(165.642 -0.00250411 0)
(165.635 -0.00463659 0)
(165.62 -0.00880817 0)
(165.592 -0.0169743 0)
(165.536 -0.0328668 0)
(165.427 -0.0634603 0)
(165.216 -0.122065 0)
(164.799 -0.235416 0)
(163.964 -0.462407 0)
(162.284 -0.916775 0)
(158.905 -1.8288 0)
(152.121 -3.66284 0)
(139.078 -7.35698 0)
(119.705 -13.3478 0)
(107.344 -18.5792 0)
(106.759 -18.5909 0)
(108.887 -18.5119 0)
(165.65 -3.12552e-11 0)
(165.65 -1.1171e-10 0)
(165.65 -2.09392e-10 0)
(165.65 -3.04476e-10 0)
(165.65 -4.44428e-10 0)
(165.65 -6.29957e-10 0)
(165.65 -8.9101e-10 0)
(165.65 -1.26222e-09 0)
(165.65 -1.79628e-09 0)
(165.65 -2.56812e-09 0)
(165.65 -3.68528e-09 0)
(165.65 -5.30252e-09 0)
(165.65 -7.64405e-09 0)
(165.65 -1.10461e-08 0)
(165.65 -1.60029e-08 0)
(165.65 -2.32527e-08 0)
(165.65 -3.38961e-08 0)
(165.65 -4.95889e-08 0)
(165.65 -7.28299e-08 0)
(165.65 -1.07416e-07 0)
(165.65 -1.59135e-07 0)
(165.65 -2.36816e-07 0)
(165.65 -3.53929e-07 0)
(165.65 -5.30999e-07 0)
(165.65 -7.99186e-07 0)
(165.65 -1.20559e-06 0)
(165.65 -1.82117e-06 0)
(165.65 -2.75252e-06 0)
(165.65 -4.15961e-06 0)
(165.65 -6.28268e-06 0)
(165.65 -9.48288e-06 0)
(165.65 -1.43041e-05 0)
(165.65 -2.15671e-05 0)
(165.65 -3.25084e-05 0)
(165.65 -4.89714e-05 0)
(165.65 -7.36699e-05 0)
(165.65 -0.000110575 0)
(165.65 -0.000165511 0)
(165.649 -0.000247554 0)
(165.649 -0.000373838 0)
(165.648 -0.00058134 0)
(165.647 -0.000946454 0)
(165.645 -0.00162149 0)
(165.64 -0.00291072 0)
(165.631 -0.00541448 0)
(165.613 -0.0103084 0)
(165.577 -0.0198582 0)
(165.507 -0.038339 0)
(165.372 -0.0737153 0)
(165.11 -0.141514 0)
(164.589 -0.273949 0)
(163.542 -0.5398 0)
(161.437 -1.07257 0)
(157.206 -2.14322 0)
(148.704 -4.28998 0)
(133.285 -8.56007 0)
(113.948 -14.6602 0)
(104.988 -17.4159 0)
(106.724 -17.8357 0)
(109.623 -17.7389 0)
(165.65 -2.98877e-11 0)
(165.65 -1.06391e-10 0)
(165.65 -1.98633e-10 0)
(165.65 -2.88805e-10 0)
(165.65 -4.22795e-10 0)
(165.65 -6.02202e-10 0)
(165.65 -8.57919e-10 0)
(165.65 -1.22289e-09 0)
(165.65 -1.75102e-09 0)
(165.65 -2.52056e-09 0)
(165.65 -3.64365e-09 0)
(165.65 -5.28267e-09 0)
(165.65 -7.66872e-09 0)
(165.65 -1.11507e-08 0)
(165.65 -1.62489e-08 0)
(165.65 -2.37399e-08 0)
(165.65 -3.47934e-08 0)
(165.65 -5.11722e-08 0)
(165.65 -7.55593e-08 0)
(165.65 -1.12047e-07 0)
(165.65 -1.66893e-07 0)
(165.65 -2.49648e-07 0)
(165.65 -3.74867e-07 0)
(165.65 -5.64718e-07 0)
(165.65 -8.5289e-07 0)
(165.65 -1.29043e-06 0)
(165.65 -1.95446e-06 0)
(165.65 -2.96128e-06 0)
(165.65 -4.48617e-06 0)
(165.65 -6.79347e-06 0)
(165.65 -1.0282e-05 0)
(165.65 -1.55537e-05 0)
(165.65 -2.3517e-05 0)
(165.65 -3.55398e-05 0)
(165.65 -5.366e-05 0)
(165.65 -8.08755e-05 0)
(165.65 -0.000121569 0)
(165.649 -0.000182188 0)
(165.649 -0.000273022 0)
(165.649 -0.000414087 0)
(165.648 -0.000648452 0)
(165.647 -0.00106444 0)
(165.644 -0.00183851 0)