/*--------------------------------*- C++ -*----------------------------------*\
  =========                 |
  \\      /  F ield         | OpenFOAM: The Open Source CFD Toolbox
   \\    /   O peration     | Website:  https://openfoam.org
    \\  /    A nd           | Version:  9
     \\/     M anipulation  |
\*---------------------------------------------------------------------------*/
FoamFile
{
    format      ascii;
    class       volScalarField;
    location    "0.006";
    object      alphat;
}
// * * * * * * * * * * * * * * * * * * * * * * * * * * * * * * * * * * * * * //

dimensions      [1 -1 -1 0 0 0 0];

internalField   nonuniform List<scalar> 
36400
(
7.99873e-06
7.96338e-06
7.92954e-06
7.89712e-06
7.866e-06
7.8361e-06
7.80734e-06
7.77965e-06
7.75297e-06
7.72724e-06
7.70241e-06
7.67847e-06
7.65537e-06
7.63311e-06
7.6117e-06
7.59115e-06
7.57148e-06
7.55273e-06
7.53496e-06
7.51821e-06
7.50253e-06
7.48795e-06
7.47449e-06
7.46216e-06
7.45095e-06
7.44081e-06
7.4317e-06
7.42355e-06
7.41628e-06
7.4098e-06
7.40403e-06
7.3989e-06
7.39433e-06
7.39029e-06
7.38678e-06
7.38387e-06
7.38179e-06
7.38101e-06
7.38237e-06
7.38748e-06
7.39978e-06
7.42825e-06
7.49257e-06
7.63809e-06
7.97766e-06
8.74997e-06
1.00501e-05
1.12198e-05
1.13981e-05
1.14698e-05
1.14901e-05
1.13695e-05
1.13023e-05
1.12635e-05
1.12186e-05
1.11553e-05
1.09168e-05
1.07349e-05
1.05817e-05
9.85398e-06
7.99873e-06
7.96338e-06
7.92954e-06
7.89712e-06
7.866e-06
7.8361e-06
7.80734e-06
7.77965e-06
7.75296e-06
7.72723e-06
7.7024e-06
7.67845e-06
7.65534e-06
7.63306e-06
7.61162e-06
7.59102e-06
7.57129e-06
7.55247e-06
7.5346e-06
7.51773e-06
7.5019e-06
7.48716e-06
7.47353e-06
7.46103e-06
7.44965e-06
7.43937e-06
7.43016e-06
7.42196e-06
7.4147e-06
7.40833e-06
7.40277e-06
7.39795e-06
7.39382e-06
7.39034e-06
7.38754e-06
7.38551e-06
7.38454e-06
7.38515e-06
7.38835e-06
7.39611e-06
7.41293e-06
7.45054e-06
7.53347e-06
7.7196e-06
8.14252e-06
8.9921e-06
1.00569e-05
1.04871e-05
1.04938e-05
1.0451e-05
1.03899e-05
1.03437e-05
1.03129e-05
1.03063e-05
1.03037e-05
1.02966e-05
1.02716e-05
1.02308e-05
1.01394e-05
9.9236e-06
7.99873e-06
7.96338e-06
7.92954e-06
7.89712e-06
7.866e-06
7.8361e-06
7.80733e-06
7.77964e-06
7.75296e-06
7.72722e-06
7.70238e-06
7.67841e-06
7.65528e-06
7.63296e-06
7.61146e-06
7.59079e-06
7.57096e-06
7.552e-06
7.53395e-06
7.51686e-06
7.50078e-06
7.48574e-06
7.47179e-06
7.45896e-06
7.44726e-06
7.4367e-06
7.42726e-06
7.41893e-06
7.41166e-06
7.40543e-06
7.40017e-06
7.39586e-06
7.39243e-06
7.38988e-06
7.38825e-06
7.38768e-06
7.38848e-06
7.39131e-06
7.39738e-06
7.40923e-06
7.43288e-06
7.48354e-06
7.59368e-06
7.84003e-06
8.37683e-06
9.25543e-06
1.00641e-05
1.02025e-05
1.0203e-05
1.01764e-05
1.00991e-05
1.0028e-05
9.95796e-06
9.89863e-06
9.85543e-06
9.81951e-06
9.78386e-06
9.74495e-06
9.69274e-06
9.63888e-06
7.99873e-06
7.96338e-06
7.92954e-06
7.89712e-06
7.866e-06
7.83609e-06
7.80733e-06
7.77964e-06
7.75295e-06
7.7272e-06
7.70236e-06
7.67837e-06
7.6552e-06
7.63284e-06
7.61128e-06
7.59051e-06
7.57054e-06
7.55141e-06
7.53314e-06
7.51577e-06
7.49935e-06
7.48393e-06
7.46957e-06
7.45629e-06
7.44415e-06
7.43318e-06
7.42339e-06
7.41482e-06
7.40745e-06
7.40128e-06
7.3963e-06
7.39249e-06
7.38984e-06
7.38834e-06
7.38808e-06
7.38923e-06
7.3922e-06
7.39776e-06
7.40749e-06
7.42477e-06
7.45817e-06
7.52758e-06
7.67781e-06
8.01053e-06
8.67367e-06
9.52634e-06
1.00048e-05
1.00111e-05
1.0015e-05
1.00084e-05
9.98175e-06
9.92574e-06
9.8559e-06
9.78887e-06
9.72382e-06
9.66686e-06
9.61438e-06
9.56308e-06
9.50596e-06
9.46241e-06
7.99873e-06
7.96338e-06
7.92954e-06
7.89712e-06
7.86599e-06
7.83609e-06
7.80733e-06
7.77964e-06
7.75294e-06
7.72719e-06
7.70233e-06
7.67832e-06
7.65513e-06
7.63272e-06
7.61109e-06
7.59022e-06
7.57012e-06
7.55081e-06
7.5323e-06
7.51464e-06
7.49787e-06
7.48204e-06
7.46721e-06
7.45344e-06
7.44079e-06
7.42932e-06
7.41909e-06
7.41015e-06
7.40255e-06
7.39631e-06
7.39147e-06
7.38802e-06
7.386e-06
7.38545e-06
7.38647e-06
7.38932e-06
7.39448e-06
7.40297e-06
7.41682e-06
7.44072e-06
7.4867e-06
7.58161e-06
7.78747e-06
8.23045e-06
8.96867e-06
9.70353e-06
9.86181e-06
9.86548e-06
9.86435e-06
9.85942e-06
9.85386e-06
9.83875e-06
9.80623e-06
9.76911e-06
9.7103e-06
9.64412e-06
9.58131e-06
9.52445e-06
9.46156e-06
9.4097e-06
7.99873e-06
7.96338e-06
7.92954e-06
7.89712e-06
7.86599e-06
7.83609e-06
7.80733e-06
7.77963e-06
7.75293e-06
7.72718e-06
7.70231e-06
7.67828e-06
7.65506e-06
7.63262e-06
7.61092e-06
7.58997e-06
7.56975e-06
7.55027e-06
7.53155e-06
7.51362e-06
7.49652e-06
7.4803e-06
7.46503e-06
7.45077e-06
7.43761e-06
7.42562e-06
7.4149e-06
7.40553e-06
7.39759e-06
7.39114e-06
7.38625e-06
7.38297e-06
7.38135e-06
7.38149e-06
7.38355e-06
7.38785e-06
7.39504e-06
7.4064e-06
7.42471e-06
7.45654e-06
7.5186e-06
7.64774e-06
7.92765e-06
8.48858e-06
9.23121e-06
9.71648e-06
9.72911e-06
9.73159e-06
9.73241e-06
9.73475e-06
9.7332e-06
9.72969e-06
9.72302e-06
9.70972e-06
9.68526e-06
9.65278e-06
9.60018e-06
9.54556e-06
9.46727e-06
9.40587e-06
7.99873e-06
7.96338e-06
7.92954e-06
7.89711e-06
7.86599e-06
7.83609e-06
7.80733e-06
7.77963e-06
7.75293e-06
7.72717e-06
7.70229e-06
7.67825e-06
7.65501e-06
7.63254e-06
7.6108e-06
7.58977e-06
7.56945e-06
7.54985e-06
7.53095e-06
7.51281e-06
7.49543e-06
7.47889e-06
7.46324e-06
7.44856e-06
7.43494e-06
7.42248e-06
7.41129e-06
7.40147e-06
7.39314e-06
7.3864e-06
7.38133e-06
7.37803e-06
7.3766e-06
7.37717e-06
7.37998e-06
7.38547e-06
7.39446e-06
7.40865e-06
7.43185e-06
7.4735e-06
7.55608e-06
7.73037e-06
8.10311e-06
8.7543e-06
9.45748e-06
9.63164e-06
9.63082e-06
9.62422e-06
9.61896e-06
9.62298e-06
9.62748e-06
9.63194e-06
9.6332e-06
9.63164e-06
9.6264e-06
9.6182e-06
9.60267e-06
9.57021e-06
9.50697e-06
9.42586e-06
7.99873e-06
7.96338e-06
7.92954e-06
7.89711e-06
7.86599e-06
7.83609e-06
7.80733e-06
7.77963e-06
7.75293e-06
7.72716e-06
7.70228e-06
7.67823e-06
7.65498e-06
7.63248e-06
7.61071e-06
7.58963e-06
7.56925e-06
7.54954e-06
7.53053e-06
7.51222e-06
7.49464e-06
7.47785e-06
7.46191e-06
7.4469e-06
7.43292e-06
7.42007e-06
7.40848e-06
7.39827e-06
7.38958e-06
7.38252e-06
7.37723e-06
7.37382e-06
7.37244e-06
7.37328e-06
7.37665e-06
7.38313e-06
7.3938e-06
7.41093e-06
7.43979e-06
7.49374e-06
7.60301e-06
7.83636e-06
8.31386e-06
9.00037e-06
9.53955e-06
9.5422e-06
9.53876e-06
9.52672e-06
9.51742e-06
9.52389e-06
9.52966e-06
9.53639e-06
9.5463e-06
9.56142e-06
9.58038e-06
9.57929e-06
9.57445e-06
9.5602e-06
9.52404e-06
9.45828e-06
7.99873e-06
7.96338e-06
7.92954e-06
7.89711e-06
7.86599e-06
7.83609e-06
7.80733e-06
7.77963e-06
7.75292e-06
7.72716e-06
7.70227e-06
7.67822e-06
7.65496e-06
7.63244e-06
7.61065e-06
7.58954e-06
7.56911e-06
7.54935e-06
7.53025e-06
7.51183e-06
7.49412e-06
7.47716e-06
7.46102e-06
7.44578e-06
7.43153e-06
7.4184e-06
7.4065e-06
7.39599e-06
7.38701e-06
7.3797e-06
7.3742e-06
7.37067e-06
7.3693e-06
7.37034e-06
7.37421e-06
7.38163e-06
7.39403e-06
7.41446e-06
7.45026e-06
7.51976e-06
7.66367e-06
7.97102e-06
8.54701e-06
9.22275e-06
9.49668e-06
9.49426e-06
9.47831e-06
9.43601e-06
9.41877e-06
9.42475e-06
9.43172e-06
9.44745e-06
9.46531e-06
9.4914e-06
9.53624e-06
9.54604e-06
9.54574e-06
9.5395e-06
9.51931e-06
9.47507e-06
7.99873e-06
7.96338e-06
7.92954e-06
7.89711e-06
7.86599e-06
7.83609e-06
7.80733e-06
7.77963e-06
7.75292e-06
7.72715e-06
7.70227e-06
7.67821e-06
7.65494e-06
7.63242e-06
7.61061e-06
7.58949e-06
7.56903e-06
7.54923e-06
7.53008e-06
7.51159e-06
7.4938e-06
7.47673e-06
7.46047e-06
7.44507e-06
7.43066e-06
7.41733e-06
7.40524e-06
7.39452e-06
7.38534e-06
7.37784e-06
7.3722e-06
7.36861e-06
7.36729e-06
7.36856e-06
7.37295e-06
7.38139e-06
7.39574e-06
7.42014e-06
7.46494e-06
7.55421e-06
7.74253e-06
8.13761e-06
8.77938e-06
9.4042e-06
9.44375e-06
9.4349e-06
9.40833e-06
9.3652e-06
9.33392e-06
9.33827e-06
9.34519e-06
9.35634e-06
9.3791e-06
9.42211e-06
9.48278e-06
9.52613e-06
9.52746e-06
9.52423e-06
9.50578e-06
9.4716e-06
7.99873e-06
7.96338e-06
7.92954e-06
7.89711e-06
7.86599e-06
7.83609e-06
7.80733e-06
7.77963e-06
7.75292e-06
7.72715e-06
7.70227e-06
7.67821e-06
7.65494e-06
7.63241e-06
7.61059e-06
7.58946e-06
7.56899e-06
7.54916e-06
7.52998e-06
7.51146e-06
7.49362e-06
7.47649e-06
7.46015e-06
7.44467e-06
7.43015e-06
7.41672e-06
7.4045e-06
7.39366e-06
7.38435e-06
7.37675e-06
7.37105e-06
7.36746e-06
7.36626e-06
7.36784e-06
7.37285e-06
7.38249e-06
7.39917e-06
7.42853e-06
7.48467e-06
7.5992e-06
7.84352e-06
8.3336e-06
8.99942e-06
9.4426e-06
9.43625e-06
9.40396e-06
9.34385e-06
9.27859e-06
9.25578e-06
9.26151e-06
9.26859e-06
9.28089e-06
9.30273e-06
9.34115e-06
9.41407e-06
9.49786e-06
9.50843e-06
9.50842e-06
9.50031e-06
9.47671e-06
7.99873e-06
7.96338e-06
7.92954e-06
7.89711e-06
7.86599e-06
7.83609e-06
7.80733e-06
7.77963e-06
7.75292e-06
7.72715e-06
7.70227e-06
7.67821e-06
7.65493e-06
7.63241e-06
7.61059e-06
7.58945e-06
7.56897e-06
7.54913e-06
7.52994e-06
7.51139e-06
7.49352e-06
7.47637e-06
7.45999e-06
7.44446e-06
7.42989e-06
7.41639e-06
7.40411e-06
7.3932e-06
7.38384e-06
7.3762e-06
7.3705e-06
7.36698e-06
7.36598e-06
7.36796e-06
7.37373e-06
7.3848e-06
7.40433e-06
7.43991e-06
7.51022e-06
7.65663e-06
7.96885e-06
8.54482e-06
9.20166e-06
9.41857e-06
9.41012e-06
9.37683e-06
9.29877e-06
9.20649e-06
9.18491e-06
9.19094e-06
9.20028e-06
9.21145e-06
9.22944e-06
9.26476e-06
9.3345e-06
9.44162e-06
9.49741e-06
9.49866e-06
9.49233e-06
9.47373e-06
7.99873e-06
7.96338e-06
7.92954e-06
7.89711e-06
7.86599e-06
7.83609e-06
7.80733e-06
7.77963e-06
7.75292e-06
7.72715e-06
7.70226e-06
7.67821e-06
7.65493e-06
7.6324e-06
7.61058e-06
7.58944e-06
7.56896e-06
7.54911e-06
7.52991e-06
7.51136e-06
7.49348e-06
7.47631e-06
7.45991e-06
7.44435e-06
7.42975e-06
7.41623e-06
7.40392e-06
7.39299e-06
7.38361e-06
7.37598e-06
7.37034e-06
7.36696e-06
7.36622e-06
7.3687e-06
7.37538e-06
7.38814e-06
7.41117e-06
7.45475e-06
7.54257e-06
7.72846e-06
8.11895e-06
8.75485e-06
9.37175e-06
9.39189e-06
9.37874e-06
9.33592e-06
9.25395e-06
9.15431e-06
9.12325e-06
9.12743e-06
9.13599e-06
9.14755e-06
9.16358e-06
9.19322e-06
9.253e-06
9.36472e-06
9.47216e-06
9.48037e-06
9.47981e-06
9.4707e-06
7.99873e-06
7.96338e-06
7.92954e-06
7.89711e-06
7.86599e-06
7.83609e-06
7.80733e-06
7.77963e-06
7.75292e-06
7.72715e-06
7.70226e-06
7.67821e-06
7.65493e-06
7.6324e-06
7.61058e-06
7.58944e-06
7.56895e-06
7.54911e-06
7.5299e-06
7.51135e-06
7.49346e-06
7.47628e-06
7.45987e-06
7.44431e-06
7.4297e-06
7.41616e-06
7.40384e-06
7.39291e-06
7.38355e-06
7.37596e-06
7.37041e-06
7.36721e-06
7.3668e-06
7.36987e-06
7.37761e-06
7.3924e-06
7.41969e-06
7.47301e-06
7.58247e-06
7.81642e-06
8.29093e-06
8.95536e-06
9.42365e-06
9.41527e-06
9.37305e-06
9.28855e-06
9.19369e-06
9.11075e-06
9.07082e-06
9.07402e-06
9.08028e-06
9.08994e-06
9.10364e-06
9.12938e-06
9.18188e-06
9.26486e-06
9.39758e-06
9.47174e-06
9.4733e-06
9.46386e-06
7.99873e-06
7.96338e-06
7.92954e-06
7.89711e-06
7.86599e-06
7.83609e-06
7.80733e-06
7.77963e-06
7.75292e-06
7.72715e-06
7.70226e-06
7.67821e-06
7.65493e-06
7.6324e-06
7.61058e-06
7.58944e-06
7.56895e-06
7.54911e-06
7.5299e-06
7.51134e-06
7.49345e-06
7.47627e-06
7.45986e-06
7.44429e-06
7.42968e-06
7.41614e-06
7.40382e-06
7.3929e-06
7.38357e-06
7.37606e-06
7.37063e-06
7.36765e-06
7.36762e-06
7.37136e-06
7.38031e-06
7.3975e-06
7.42995e-06
7.49497e-06
7.63064e-06
7.92128e-06
8.47491e-06
9.1422e-06
9.42251e-06
9.41113e-06
9.36629e-06
9.26163e-06
9.14054e-06
9.06844e-06
9.0269e-06
9.02796e-06
9.03156e-06
9.03687e-06
9.04733e-06
9.06732e-06
9.10659e-06
9.18002e-06
9.29142e-06
9.41925e-06
9.45855e-06
9.45834e-06
7.99873e-06
7.96338e-06
7.92954e-06
7.89711e-06
7.86599e-06
7.83609e-06
7.80733e-06
7.77963e-06
7.75292e-06
7.72715e-06
7.70226e-06
7.67821e-06
7.65493e-06
7.6324e-06
7.61058e-06
7.58944e-06
7.56895e-06
7.5491e-06
7.5299e-06
7.51134e-06
7.49345e-06
7.47627e-06
7.45985e-06
7.44429e-06
7.42967e-06
7.41614e-06
7.40384e-06
7.39294e-06
7.38365e-06
7.37621e-06
7.37093e-06
7.36819e-06
7.3686e-06
7.3731e-06
7.38344e-06
7.40342e-06
7.44223e-06
7.52105e-06
7.68785e-06
8.04286e-06
8.65984e-06
9.30461e-06
9.40413e-06
9.3918e-06
9.3462e-06
9.24313e-06
9.10471e-06
9.03066e-06
8.99143e-06
8.98493e-06
8.98788e-06
8.99184e-06
8.9998e-06
9.01427e-06
9.0422e-06
9.09441e-06
9.18503e-06
9.30828e-06
9.42182e-06
9.43808e-06
7.99873e-06
7.96338e-06
7.92954e-06
7.89711e-06
7.86599e-06
7.83609e-06
7.80733e-06
7.77963e-06
7.75292e-06
7.72715e-06
7.70226e-06
7.67821e-06
7.65493e-06
7.6324e-06
7.61058e-06
7.58944e-06
7.56895e-06
7.5491e-06
7.5299e-06
7.51134e-06
7.49345e-06
7.47627e-06
7.45985e-06
7.44429e-06
7.42968e-06
7.41615e-06
7.40386e-06
7.39299e-06
7.38375e-06
7.37641e-06
7.37128e-06
7.36883e-06
7.36971e-06
7.37504e-06
7.38696e-06
7.41022e-06
7.45644e-06
7.55162e-06
7.75513e-06
8.17951e-06
8.83744e-06
9.41781e-06
9.40626e-06
9.37225e-06
9.31903e-06
9.21328e-06
9.08154e-06
9.00158e-06
8.96086e-06
8.94601e-06
8.94843e-06
8.95091e-06
8.95665e-06
8.96823e-06
8.98638e-06
9.02031e-06
9.0811e-06
9.18868e-06
9.32271e-06
9.40915e-06
7.99873e-06
7.96338e-06
7.92954e-06
7.89711e-06
7.86599e-06
7.83609e-06
7.80733e-06
7.77963e-06
7.75292e-06
7.72715e-06
7.70226e-06
7.67821e-06
7.65493e-06
7.6324e-06
7.61058e-06
7.58944e-06
7.56895e-06
7.5491e-06
7.5299e-06
7.51134e-06
7.49345e-06
7.47627e-06
7.45985e-06
7.44429e-06
7.42969e-06
7.41617e-06
7.4039e-06
7.39306e-06
7.38388e-06
7.37663e-06
7.37168e-06
7.36953e-06
7.37093e-06
7.37718e-06
7.39088e-06
7.41791e-06
7.47268e-06
7.58687e-06
7.83239e-06
8.32731e-06
9.00495e-06
9.44588e-06
9.43349e-06
9.38679e-06
9.27744e-06
9.17305e-06
9.06244e-06
8.98174e-06
8.93717e-06
8.91385e-06
8.91384e-06
8.91601e-06
8.91938e-06
8.92548e-06
8.93836e-06
8.95798e-06
9.00308e-06
9.08078e-06
9.18314e-06
9.31294e-06
7.99873e-06
7.96338e-06
7.92954e-06
7.89711e-06
7.86599e-06
7.83609e-06
7.80733e-06
7.77963e-06
7.75292e-06
7.72715e-06
7.70226e-06
7.67821e-06
7.65493e-06
7.6324e-06
7.61058e-06
7.58944e-06
7.56895e-06
7.5491e-06
7.5299e-06
7.51134e-06
7.49345e-06
7.47627e-06
7.45986e-06
7.4443e-06
7.4297e-06
7.41619e-06
7.40394e-06
7.39313e-06
7.38401e-06
7.37688e-06
7.37212e-06
7.37028e-06
7.37224e-06
7.3795e-06
7.39519e-06
7.42657e-06
7.49098e-06
7.62688e-06
7.91938e-06
8.47918e-06
9.15887e-06
9.44796e-06
9.43537e-06
9.38376e-06
9.26246e-06
9.13699e-06
9.04346e-06
8.96836e-06
8.92048e-06
8.8922e-06
8.88004e-06
8.88159e-06
8.88491e-06
8.88967e-06
8.8972e-06
8.91009e-06
8.9365e-06
8.97958e-06
9.0654e-06
9.18107e-06
7.99873e-06
7.96338e-06
7.92954e-06
7.89711e-06
7.86599e-06
7.83609e-06
7.80733e-06
7.77963e-06
7.75292e-06
7.72715e-06
7.70226e-06
7.67821e-06
7.65493e-06
7.6324e-06
7.61058e-06
7.58944e-06
7.56895e-06
7.5491e-06
7.5299e-06
7.51134e-06
7.49345e-06
7.47627e-06
7.45986e-06
7.44431e-06
7.42971e-06
7.41621e-06
7.40398e-06
7.39321e-06
7.38416e-06
7.37714e-06
7.37258e-06
7.37108e-06
7.37363e-06
7.38199e-06
7.39988e-06
7.43627e-06
7.51154e-06
7.67181e-06
8.01495e-06
8.62859e-06
9.29202e-06
9.43821e-06
9.42527e-06
9.37292e-06
9.25385e-06
9.11167e-06
9.02533e-06
8.95836e-06
8.9095e-06
8.87814e-06
8.85664e-06
8.85088e-06
8.85247e-06
8.8543e-06
8.8603e-06
8.86955e-06
8.88278e-06
8.91088e-06
8.96024e-06
9.04962e-06
7.99873e-06
7.96338e-06
7.92954e-06
7.89711e-06
7.86599e-06
7.83609e-06
7.80733e-06
7.77963e-06
7.75292e-06
7.72715e-06
7.70226e-06
7.67821e-06
7.65493e-06
7.6324e-06
7.61058e-06
7.58944e-06
7.56895e-06
7.54911e-06
7.5299e-06
7.51134e-06
7.49345e-06
7.47627e-06
7.45986e-06
7.44431e-06
7.42972e-06
7.41624e-06
7.40403e-06
7.3933e-06
7.38432e-06
7.37742e-06
7.37306e-06
7.37193e-06
7.3751e-06
7.38463e-06
7.40495e-06
7.44682e-06
7.53412e-06
7.72147e-06
8.11791e-06
8.77084e-06
9.4001e-06
9.42419e-06
9.4105e-06
9.35794e-06
9.24271e-06
9.09543e-06
9.00981e-06
8.95e-06
8.90242e-06
8.86919e-06
8.8442e-06
8.82647e-06
8.8223e-06
8.82379e-06
8.82599e-06
8.83245e-06
8.84097e-06
8.85545e-06
8.88605e-06
8.93868e-06
7.99873e-06
7.96338e-06
7.92954e-06
7.89711e-06
7.86599e-06
7.83609e-06
7.80733e-06
7.77963e-06
7.75292e-06
7.72715e-06
7.70226e-06
7.67821e-06
7.65493e-06
7.6324e-06
7.61058e-06
7.58944e-06
7.56895e-06
7.54911e-06
7.5299e-06
7.51134e-06
7.49345e-06
7.47627e-06
7.45987e-06
7.44432e-06
7.42974e-06
7.41627e-06
7.40408e-06
7.39339e-06
7.38448e-06
7.37771e-06
7.37357e-06
7.3728e-06
7.37663e-06
7.38741e-06
7.41038e-06
7.4582e-06
7.55865e-06
7.7754e-06
8.22576e-06
8.90326e-06
9.45794e-06
9.44764e-06
9.39251e-06
9.33325e-06
9.224e-06
9.08456e-06
8.99792e-06
8.94275e-06
8.89777e-06
8.86358e-06
8.83704e-06
8.81496e-06
8.79941e-06
8.79399e-06
8.79535e-06
8.79919e-06
8.80393e-06
8.81158e-06
8.82815e-06
8.85662e-06
7.99873e-06
7.96338e-06
7.92954e-06
7.89711e-06
7.86599e-06
7.83609e-06
7.80733e-06
7.77963e-06
7.75292e-06
7.72715e-06
7.70226e-06
7.67821e-06
7.65493e-06
7.6324e-06
7.61058e-06
7.58944e-06
7.56895e-06
7.54911e-06
7.5299e-06
7.51134e-06
7.49345e-06
7.47628e-06
7.45987e-06
7.44433e-06
7.42975e-06
7.41629e-06
7.40413e-06
7.39348e-06
7.38465e-06
7.378e-06
7.37408e-06
7.37369e-06
7.3782e-06
7.3903e-06
7.41609e-06
7.47027e-06
7.58487e-06
7.83288e-06
8.335e-06
9.02558e-06
9.47775e-06
9.46313e-06
9.40665e-06
9.30264e-06
9.19851e-06
9.0755e-06
8.98954e-06
8.93665e-06
8.89456e-06
8.86018e-06
8.83285e-06
8.80892e-06
8.78909e-06
8.77421e-06
8.76619e-06
8.76861e-06
8.77077e-06
8.7747e-06
8.78198e-06
8.79753e-06
7.99873e-06
7.96338e-06
7.92954e-06
7.89711e-06
7.86599e-06
7.83609e-06
7.80733e-06
7.77963e-06
7.75292e-06
7.72715e-06
7.70226e-06
7.67821e-06
7.65493e-06
7.6324e-06
7.61058e-06
7.58944e-06
7.56895e-06
7.54911e-06
7.5299e-06
7.51134e-06
7.49346e-06
7.47628e-06
7.45988e-06
7.44434e-06
7.42977e-06
7.41632e-06
7.40418e-06
7.39358e-06
7.38482e-06
7.3783e-06
7.3746e-06
7.3746e-06
7.3798e-06
7.39327e-06
7.4221e-06
7.48288e-06
7.61239e-06
7.89289e-06
8.4419e-06
9.13602e-06
9.48272e-06
9.46982e-06
9.41673e-06
9.28092e-06
9.17305e-06
9.06636e-06
8.98384e-06
8.93186e-06
8.89227e-06
8.85825e-06
8.83048e-06
8.80574e-06
8.78391e-06
8.76547e-06
8.75081e-06
8.74144e-06
8.74027e-06
8.74191e-06
8.74574e-06
8.75333e-06
7.99873e-06
7.96338e-06
7.92954e-06
7.89711e-06
7.86599e-06
7.83609e-06
7.80733e-06
7.77963e-06
7.75292e-06
7.72715e-06
7.70226e-06
7.67821e-06
7.65493e-06
7.6324e-06
7.61058e-06
7.58944e-06
7.56895e-06
7.54911e-06
7.5299e-06
7.51134e-06
7.49346e-06
7.47628e-06
7.45988e-06
7.44434e-06
7.42978e-06
7.41635e-06
7.40423e-06
7.39367e-06
7.38499e-06
7.3786e-06
7.37512e-06
7.3755e-06
7.3814e-06
7.39628e-06
7.42831e-06
7.49599e-06
7.64091e-06
7.954e-06
8.54349e-06
9.23297e-06
9.48149e-06
9.46756e-06
9.41052e-06
9.27774e-06
9.1517e-06
9.05696e-06
8.97983e-06
8.92836e-06
8.89061e-06
8.85733e-06
8.82932e-06
8.80422e-06
8.78132e-06
8.76113e-06
8.74365e-06
8.72954e-06
8.71962e-06
8.7145e-06
8.71711e-06
8.71888e-06
7.99873e-06
7.96338e-06
7.92954e-06
7.89711e-06
7.86599e-06
7.83609e-06
7.80733e-06
7.77963e-06
7.75292e-06
7.72715e-06
7.70226e-06
7.67821e-06
7.65493e-06
7.6324e-06
7.61058e-06
7.58944e-06
7.56895e-06
7.54911e-06
7.5299e-06
7.51134e-06
7.49346e-06
7.47628e-06
7.45989e-06
7.44435e-06
7.4298e-06
7.41638e-06
7.40429e-06
7.39377e-06
7.38516e-06
7.37889e-06
7.37563e-06
7.37638e-06
7.38298e-06
7.39928e-06
7.43452e-06
7.50916e-06
7.66976e-06
8.01542e-06
8.63789e-06
9.3156e-06
9.47594e-06
9.46147e-06
9.40427e-06
9.27364e-06
9.13578e-06
9.04788e-06
8.97675e-06
8.92598e-06
8.88946e-06
8.85705e-06
8.82896e-06
8.80372e-06
8.78029e-06
8.75914e-06
8.74018e-06
8.72377e-06
8.71042e-06
8.70072e-06
8.69501e-06
8.69428e-06
7.99873e-06
7.96338e-06
7.92954e-06
7.89711e-06
7.86599e-06
7.83609e-06
7.80733e-06
7.77963e-06
7.75292e-06
7.72715e-06
7.70226e-06
7.67821e-06
7.65493e-06
7.6324e-06
7.61058e-06
7.58944e-06
7.56895e-06
7.54911e-06
7.5299e-06
7.51135e-06
7.49346e-06
7.47629e-06
7.45989e-06
7.44436e-06
7.42981e-06
7.41641e-06
7.40434e-06
7.39386e-06
7.38532e-06
7.37918e-06
7.37612e-06
7.37723e-06
7.38451e-06
7.40224e-06
7.44062e-06
7.52219e-06
7.69845e-06
8.07556e-06
8.72378e-06
9.3838e-06
9.46845e-06
9.45421e-06
9.39717e-06
9.26837e-06
9.12441e-06
9.03974e-06
8.97416e-06
8.92445e-06
8.88872e-06
8.85719e-06
8.82913e-06
8.80388e-06
8.7802e-06
8.7585e-06
8.73874e-06
8.7211e-06
8.70594e-06
8.69364e-06
8.68472e-06
8.67923e-06
7.99873e-06
7.96338e-06
7.92954e-06
7.89711e-06
7.86599e-06
7.83609e-06
7.80733e-06
7.77963e-06
7.75292e-06
7.72715e-06
7.70226e-06
7.67821e-06
7.65493e-06
7.6324e-06
7.61058e-06
7.58944e-06
7.56895e-06
7.54911e-06
7.5299e-06
7.51135e-06
7.49346e-06
7.47629e-06
7.4599e-06
7.44437e-06
7.42983e-06
7.41643e-06
7.40438e-06
7.39395e-06
7.38547e-06
7.37944e-06
7.37658e-06
7.37804e-06
7.38597e-06
7.40507e-06
7.44653e-06
7.53486e-06
7.72632e-06
8.13289e-06
8.80033e-06
9.43829e-06
9.46053e-06
9.44685e-06
9.38947e-06
9.26249e-06
9.11638e-06
9.03288e-06
8.97187e-06
8.92352e-06
8.88831e-06
8.85756e-06
8.82964e-06
8.80443e-06
8.78064e-06
8.75861e-06
8.73836e-06
8.72001e-06
8.70384e-06
8.69007e-06
8.67916e-06
8.67113e-06
7.99873e-06
7.96338e-06
7.92954e-06
7.89711e-06
7.86599e-06
7.83609e-06
7.80733e-06
7.77963e-06
7.75292e-06
7.72715e-06
7.70226e-06
7.67821e-06
7.65493e-06
7.6324e-06
7.61058e-06
7.58944e-06
7.56895e-06
7.54911e-06
7.5299e-06
7.51135e-06
7.49346e-06
7.47629e-06
7.4599e-06
7.44438e-06
7.42984e-06
7.41646e-06
7.40443e-06
7.39403e-06
7.38561e-06
7.37969e-06
7.37701e-06
7.37878e-06
7.38733e-06
7.40773e-06
7.4521e-06
7.54686e-06
7.75269e-06
8.18606e-06
8.86716e-06
9.47604e-06
9.46307e-06
9.43654e-06
9.38045e-06
9.256e-06
9.11063e-06
9.02736e-06
8.96985e-06
8.92297e-06
8.88813e-06
8.85804e-06
8.83032e-06
8.80518e-06
8.7814e-06
8.75925e-06
8.73876e-06
8.71999e-06
8.70321e-06
8.68857e-06
8.67637e-06
8.66683e-06
7.99873e-06
7.96338e-06
7.92954e-06
7.89711e-06
7.86599e-06
7.83609e-06
7.80733e-06
7.77963e-06
7.75292e-06
7.72715e-06
7.70226e-06
7.67821e-06
7.65493e-06
7.6324e-06
7.61058e-06
7.58944e-06
7.56895e-06
7.54911e-06
7.5299e-06
7.51135e-06
7.49346e-06
7.47629e-06
7.4599e-06
7.44438e-06
7.42985e-06
7.41648e-06
7.40447e-06
7.3941e-06
7.38574e-06
7.37991e-06
7.37739e-06
7.37946e-06
7.38856e-06
7.41015e-06
7.45719e-06
7.55785e-06
7.77686e-06
8.23381e-06
8.92429e-06
9.49441e-06
9.48062e-06
9.42769e-06
9.36717e-06
9.24854e-06
9.10641e-06
9.02309e-06
8.9681e-06
8.92266e-06
8.88811e-06
8.85856e-06
8.83106e-06
8.806e-06
8.78228e-06
8.76004e-06
8.73938e-06
8.72034e-06
8.70317e-06
8.688e-06
8.67505e-06
8.66458e-06
7.99873e-06
7.96338e-06
7.92954e-06
7.89711e-06
7.86599e-06
7.83609e-06
7.80733e-06
7.77963e-06
7.75292e-06
7.72715e-06
7.70226e-06
7.67821e-06
7.65493e-06
7.6324e-06
7.61058e-06
7.58944e-06
7.56895e-06
7.54911e-06
7.5299e-06
7.51135e-06
7.49346e-06
7.4763e-06
7.45991e-06
7.44439e-06
7.42986e-06
7.4165e-06
7.40451e-06
7.39416e-06
7.38585e-06
7.3801e-06
7.37772e-06
7.38004e-06
7.38964e-06
7.41227e-06
7.46166e-06
7.56755e-06
7.79815e-06
8.27507e-06
8.97182e-06
9.50512e-06
9.49351e-06
9.42562e-06
9.35501e-06
9.24036e-06
9.1032e-06
9.01989e-06
8.96664e-06
8.92248e-06
8.88818e-06
8.85906e-06
8.83177e-06
8.80681e-06
8.78315e-06
8.76087e-06
8.74012e-06
8.72091e-06
8.70347e-06
8.68791e-06
8.67446e-06
8.66333e-06
7.99873e-06
7.96338e-06
7.92954e-06
7.89711e-06
7.86599e-06
7.83609e-06
7.80733e-06
7.77963e-06
7.75292e-06
7.72715e-06
7.70226e-06
7.67821e-06
7.65493e-06
7.6324e-06
7.61058e-06
7.58944e-06
7.56895e-06
7.54911e-06
7.5299e-06
7.51135e-06
7.49347e-06
7.4763e-06
7.45991e-06
7.44439e-06
7.42987e-06
7.41652e-06
7.40453e-06
7.39422e-06
7.38594e-06
7.38026e-06
7.378e-06
7.38052e-06
7.39053e-06
7.41404e-06
7.4654e-06
7.57568e-06
7.81597e-06
8.30897e-06
9.00976e-06
9.51207e-06
9.49806e-06
9.42961e-06
9.34517e-06
9.23305e-06
9.10074e-06
9.01758e-06
8.9655e-06
8.92239e-06
8.8883e-06
8.85951e-06
8.83241e-06
8.80753e-06
8.78392e-06
8.76161e-06
8.74076e-06
8.72143e-06
8.7038e-06
8.68801e-06
8.67422e-06
8.66257e-06
7.99873e-06
7.96338e-06
7.92954e-06
7.89711e-06
7.86599e-06
7.83609e-06
7.80733e-06
7.77963e-06
7.75292e-06
7.72715e-06
7.70226e-06
7.67821e-06
7.65493e-06
7.6324e-06
7.61058e-06
7.58944e-06
7.56895e-06
7.54911e-06
7.5299e-06
7.51135e-06
7.49347e-06
7.4763e-06
7.45991e-06
7.4444e-06
7.42988e-06
7.41653e-06
7.40456e-06
7.39426e-06
7.38601e-06
7.38038e-06
7.37821e-06
7.38089e-06
7.39122e-06
7.41542e-06
7.4683e-06
7.58201e-06
7.82981e-06
8.33488e-06
9.03814e-06
9.51618e-06
9.5001e-06
9.43386e-06
9.33791e-06
9.22728e-06
9.09891e-06
9.01597e-06
8.96464e-06
8.92234e-06
8.88843e-06
8.85986e-06
8.83292e-06
8.80811e-06
8.78457e-06
8.76227e-06
8.74139e-06
8.72193e-06
8.70413e-06
8.68811e-06
8.67405e-06
8.662e-06
7.99873e-06
7.96338e-06
7.92954e-06
7.89711e-06
7.86599e-06
7.83609e-06
7.80733e-06
7.77963e-06
7.75292e-06
7.72715e-06
7.70226e-06
7.67821e-06
7.65493e-06
7.6324e-06
7.61058e-06
7.58944e-06
7.56895e-06
7.54911e-06
7.52991e-06
7.51135e-06
7.49347e-06
7.4763e-06
7.45991e-06
7.4444e-06
7.42988e-06
7.41654e-06
7.40457e-06
7.39428e-06
7.38606e-06
7.38047e-06
7.37835e-06
7.38115e-06
7.39169e-06
7.41637e-06
7.47028e-06
7.58633e-06
7.83929e-06
8.35242e-06
9.05709e-06
9.51839e-06
9.50144e-06
9.43667e-06
9.33318e-06
9.22327e-06
9.09763e-06
9.01494e-06
8.96405e-06
8.92229e-06
8.88851e-06
8.8601e-06
8.83328e-06
8.80851e-06
8.78503e-06
8.76276e-06
8.74188e-06
8.72239e-06
8.70447e-06
8.68828e-06
8.67393e-06
8.66163e-06
7.99873e-06
7.96338e-06
7.92954e-06
7.89711e-06
7.86599e-06
7.83609e-06
7.80733e-06
7.77963e-06
7.75292e-06
7.72715e-06
7.70226e-06
7.67821e-06
7.65493e-06
7.6324e-06
7.61058e-06
7.58944e-06
7.56895e-06
7.54911e-06
7.52991e-06
7.51135e-06
7.49347e-06
7.4763e-06
7.45991e-06
7.4444e-06
7.42989e-06
7.41654e-06
7.40458e-06
7.3943e-06
7.38609e-06
7.38051e-06
7.37842e-06
7.38127e-06
7.39193e-06
7.41685e-06
7.47127e-06
7.58849e-06
7.844e-06
8.36099e-06
9.06616e-06
9.51935e-06
9.50216e-06
9.43796e-06
9.33108e-06
9.22142e-06
9.09702e-06
9.01446e-06
8.96377e-06
8.92226e-06
8.88856e-06
8.86022e-06
8.83345e-06
8.80872e-06
8.78526e-06
8.76301e-06
8.74213e-06
8.72263e-06
8.70469e-06
8.68844e-06
8.6739e-06
8.66149e-06
7.99873e-06
7.96338e-06
7.92954e-06
7.89711e-06
7.86599e-06
7.83609e-06
7.80733e-06
7.77963e-06
7.75292e-06
7.72715e-06
7.70226e-06
7.67821e-06
7.65493e-06
7.6324e-06
7.61058e-06
7.58944e-06
7.56895e-06
7.54911e-06
7.52991e-06
7.51135e-06
7.49347e-06
7.4763e-06
7.45991e-06
7.4444e-06
7.42989e-06
7.41654e-06
7.40458e-06
7.3943e-06
7.38609e-06
7.38051e-06
7.37842e-06
7.38127e-06
7.39193e-06
7.41685e-06
7.47127e-06
7.58849e-06
7.844e-06
8.36099e-06
9.06616e-06
9.51936e-06
9.50217e-06
9.43797e-06
9.33108e-06
9.22142e-06
9.09701e-06
9.01446e-06
8.96377e-06
8.92226e-06
8.88856e-06
8.86022e-06
8.83346e-06
8.80872e-06
8.78527e-06
8.76302e-06
8.74214e-06
8.72264e-06
8.7047e-06
8.68845e-06
8.6739e-06
8.6615e-06
7.99873e-06
7.96338e-06
7.92954e-06
7.89711e-06
7.86599e-06
7.83609e-06
7.80733e-06
7.77963e-06
7.75292e-06
7.72715e-06
7.70226e-06
7.67821e-06
7.65493e-06
7.6324e-06
7.61058e-06
7.58944e-06
7.56895e-06
7.54911e-06
7.52991e-06
7.51135e-06
7.49347e-06
7.4763e-06
7.45991e-06
7.4444e-06
7.42988e-06
7.41654e-06
7.40457e-06
7.39428e-06
7.38606e-06
7.38047e-06
7.37835e-06
7.38115e-06
7.39169e-06
7.41637e-06
7.47028e-06
7.58633e-06
7.83928e-06
8.35241e-06
9.0571e-06
9.51839e-06
9.50145e-06
9.43668e-06
9.33318e-06
9.22327e-06
9.09763e-06
9.01494e-06
8.96405e-06
8.92229e-06
8.88852e-06
8.86011e-06
8.83329e-06
8.80853e-06
8.78505e-06
8.76279e-06
8.74191e-06
8.72241e-06
8.7045e-06
8.6883e-06
8.67396e-06
8.66165e-06
7.99873e-06
7.96338e-06
7.92954e-06
7.89711e-06
7.86599e-06
7.83609e-06
7.80733e-06
7.77963e-06
7.75292e-06
7.72715e-06
7.70226e-06
7.67821e-06
7.65493e-06
7.6324e-06
7.61058e-06
7.58944e-06
7.56895e-06
7.54911e-06
7.5299e-06
7.51135e-06
7.49347e-06
7.4763e-06
7.45991e-06
7.4444e-06
7.42988e-06
7.41653e-06
7.40456e-06
7.39426e-06
7.38601e-06
7.38038e-06
7.37821e-06
7.38089e-06
7.39122e-06
7.41542e-06
7.4683e-06
7.58201e-06
7.82981e-06
8.33487e-06
9.03814e-06
9.51619e-06
9.50011e-06
9.43387e-06
9.33791e-06
9.22728e-06
9.0989e-06
9.01596e-06
8.96464e-06
8.92234e-06
8.88844e-06
8.85988e-06
8.83295e-06
8.80814e-06
8.7846e-06
8.76231e-06
8.74143e-06
8.72198e-06
8.70417e-06
8.68815e-06
8.67409e-06
8.66204e-06
7.99873e-06
7.96338e-06
7.92954e-06
7.89711e-06
7.86599e-06
7.83609e-06
7.80733e-06
7.77963e-06
7.75292e-06
7.72715e-06
7.70226e-06
7.67821e-06
7.65493e-06
7.6324e-06
7.61058e-06
7.58944e-06
7.56895e-06
7.54911e-06
7.5299e-06
7.51135e-06
7.49347e-06
7.4763e-06
7.45991e-06
7.44439e-06
7.42987e-06
7.41652e-06
7.40453e-06
7.39421e-06
7.38594e-06
7.38026e-06
7.378e-06
7.38052e-06
7.39053e-06
7.41404e-06
7.4654e-06
7.57568e-06
7.81597e-06
8.30896e-06
9.00976e-06
9.51208e-06
9.49808e-06
9.42962e-06
9.34518e-06
9.23304e-06
9.10073e-06
9.01756e-06
8.96549e-06
8.92239e-06
8.88831e-06
8.85953e-06
8.83244e-06
8.80756e-06
8.78396e-06
8.76166e-06
8.74082e-06
8.72148e-06
8.70386e-06
8.68806e-06
8.67428e-06
8.66262e-06
7.99873e-06
7.96338e-06
7.92954e-06
7.89711e-06
7.86599e-06
7.83609e-06
7.80733e-06
7.77963e-06
7.75292e-06
7.72715e-06
7.70226e-06
7.67821e-06
7.65493e-06
7.6324e-06
7.61058e-06
7.58944e-06
7.56895e-06
7.54911e-06
7.5299e-06
7.51135e-06
7.49346e-06
7.4763e-06
7.45991e-06
7.44439e-06
7.42986e-06
7.4165e-06
7.40451e-06
7.39416e-06
7.38585e-06
7.3801e-06
7.37772e-06
7.38004e-06
7.38964e-06
7.41227e-06
7.46166e-06
7.56755e-06
7.79814e-06
8.27506e-06
8.97182e-06
9.50513e-06
9.49353e-06
9.42563e-06
9.35502e-06
9.24034e-06
9.10319e-06
9.01987e-06
8.96663e-06
8.92248e-06
8.8882e-06
8.85909e-06
8.83181e-06
8.80685e-06
8.7832e-06
8.76093e-06
8.74018e-06
8.72098e-06
8.70353e-06
8.68798e-06
8.67453e-06
8.66339e-06
7.99873e-06
7.96338e-06
7.92954e-06
7.89711e-06
7.86599e-06
7.83609e-06
7.80733e-06
7.77963e-06
7.75292e-06
7.72715e-06
7.70226e-06
7.67821e-06
7.65493e-06
7.6324e-06
7.61058e-06
7.58944e-06
7.56895e-06
7.54911e-06
7.5299e-06
7.51135e-06
7.49346e-06
7.47629e-06
7.4599e-06
7.44438e-06
7.42985e-06
7.41648e-06
7.40447e-06
7.3941e-06
7.38574e-06
7.37991e-06
7.37739e-06
7.37946e-06
7.38856e-06
7.41015e-06
7.45719e-06
7.55785e-06
7.77685e-06
8.2338e-06
8.92428e-06
9.49443e-06
9.48064e-06
9.4277e-06
9.36717e-06
9.24853e-06
9.10639e-06
9.02307e-06
8.96809e-06
8.92266e-06
8.88812e-06
8.85859e-06
8.8311e-06
8.80605e-06
8.78234e-06
8.7601e-06
8.73945e-06
8.72042e-06
8.70325e-06
8.68807e-06
8.67512e-06
8.66465e-06
7.99873e-06
7.96338e-06
7.92954e-06
7.89711e-06
7.86599e-06
7.83609e-06
7.80733e-06