/*--------------------------------*- C++ -*----------------------------------*\
  =========                 |
  \\      /  F ield         | OpenFOAM: The Open Source CFD Toolbox
   \\    /   O peration     | Website:  https://openfoam.org
    \\  /    A nd           | Version:  9
     \\/     M anipulation  |
\*---------------------------------------------------------------------------*/
FoamFile
{
    format      ascii;
    class       volScalarField;
    location    "0.006";
    object      epsilon;
}
// * * * * * * * * * * * * * * * * * * * * * * * * * * * * * * * * * * * * * //

dimensions      [0 2 -3 0 0 0 0];

internalField   nonuniform List<scalar> 
36400
(
250676
234070
218999
205286
192776
181334
170846
161211
152341
144159
136598
129597
123105
117075
111466
106242
101373
96828
92584.1
88619.4
84914.7
81453.2
78220.2
75202.5
72388.4
69767.1
67329
65065.3
62967.6
61028.4
59240.6
57597.8
56094.2
54724.5
53484
52368.7
51375.3
50501.3
49746.1
49112.4
48614.2
48299.8
48295
48963
51414.8
58213
69716.4
78298.2
81838.7
84992.2
87251.7
88428.1
89319.9
89967.8
90344.3
90665.6
94952.8
97999
100126
129498
250676
234070
218999
205286
192776
181334
170846
161211
152341
144159
136597
129597
123104
117074
111464
106240
101369
96822.5
92576.2
88608.2
84899.2
81432.3
78192.5
75166.5
72342.5
69709.8
67258.7
64980.5
62866.9
60910.5
59104.6
57442.9
55919.9
54530.6
53270.5
52136
51124.1
50233
49462.8
48818.4
48320.3
48031.7
48113.6
49035.3
52053.4
58541.6
64857.2
66156.3
66343.3
66529.6
66819.6
67433.1
68143.2
68917
69674.9
70400.3
71276
72316.3
74229.9
79154.5
250676
234070
218999
205286
192776
181334
170846
161211
152341
144159
136597
129596
123103
117072
111462
106236
101363
96813.1
92562.5
88588.8
84872.3
81395.9
78144.2
75103.8
72262.7
69610.1
67136.4
64832.7
62691.3
60705
58867.3
57172.6
55615.5
54191.7
52897.1
51728.7
50684.1
49762.2
48964.7
48300.2
47798.8
47547.2
47773.7
49132.9
52956.3
58963.1
62563.5
62577.5
62385.6
62042.6
61488
61012
60662.7
60414.5
60299.9
60279.3
60347.8
60527.3
61005.3
62082.3
250676
234070
218999
205286
192776
181334
170846
161211
152341
144159
136597
129595
123102
117070
111459
106231
101355
96801.9
92546.3
88565.7
84840.4
81352.6
78086.8
75029.3
72167.7
69491.3
66990.4
64656.4
62481.6
60459.3
58583.5
56848.9
55251
53785.7
52449.8
51240.7
50157
49198.7
48369.7
47684.4
47188.3
47003.2
47467.3
49459.1
53993.6
58856.7
60179
59863.3
59621.6
59343.6
58954.3
58432
57868
57374.1
56928.3
56557
56257.7
56019.2
55881.7
55938.4
250676
234070
218999
205286
192776
181334
170846
161211
152341
144159
136596
129595
123101
117068
111456
106226
101348
96791.1
92530.6
88543.5
84809.5
81310.8
78031.3
74957.1
72075.7
69376.1
66848.7
64485
62277.6
60220.1
58306.9
56533.3
54895.2
53389.3
52013
50764.6
49643.3
48650.9
47794.5
47096.7
46625
46556.5
47387.2
50139.4
54823.3
57961
57882.4
57581.4
57288.7
57010.7
56747
56442.6
56063
55668.1
55221.3
54784.5
54384.8
54060
53763.6
53550.3
250676
234070
218999
205286
192776
181334
170846
161211
152341
144158
136596
129594
123100
117067
111453
106222
101342
96782.2
92517.6
88525
84783.9
81276
77985.2
74897
71999
69280
66730.3
64341.6
62106.7
60019.4
58074.6
56268
54596
53055.9
51645.8
50364.7
49213.1
48194.6
47320.9
46626.8
46210.9
46335.6
47686.7
51160.1
55263.2
56539.5
56067.9
55699.2
55401.7
55158
54936.4
54731.3
54523.2
54290.6
54015.3
53721.6
53373.5
53054.9
52703.3
52434
250676
234070
218999
205286
192776
181334
170846
161211
152341
144158
136596
129594
123099
117066
111451
106220
101337
96775.6
92508.1
88511.5
84765.1
81250.5
77951.2
74852.8
71942.4
69208.9
66642.7
64235.4
61979.9
59870.4
57901.9
56070.5
54373.2
52807.8
51372.9
50068.4
48896
47862.1
46984.8
46317.2
46000.4
46421.1
48425.8
52315.2
55349.8
55180
54734.3
54331.3
54018.7
53796.7
53619.9
53478
53346.2
53209.2
53065.2
52909.9
52732.8
52503.8
52199.9
51874.1
250676
234070
218999
205286
192776
181334
170846
161211
152341
144158
136596
129593
123099
117065
111450
106218
101335
96771.3
92501.8
88502.6
84752.7
81233.6
77928.7
74823.4
71904.8
69161.7
66584.4
64164.5
61895.2
59770.7
57786.3
55938.3
54224.2
52642.1
51191.2
49872.4
48689
47650.8
46785.3
46170.5
46011.2
46852.6
49560.3
53328.9
54884
54232
53744
53335
53042.1
52859.3
52715.2
52610.2
52542.4
52507.4
52463.5
52368.3
52265.1
52130.1
51927.6
51650.6
250676
234070
218999
205286
192776
181334
170846
161211
152341
144158
136596
129593
123099
117064
111449
106217
101333
96768.7
92498.1
88497.2
84745.3
81223.5
77915.2
74805.7
71882.1
69133.1
66549
64121.5
61843.8
59710.1
57716
55858
54133.8
52542.1
51082.6
49757.1
48570.9
47538.6
46701.2
46170.2
46242.1
47626.8
50920.9
54062.5
54213.3
53662.9
53140
52638.9
52341.5
52178.9
52057.8
52004.6
51988.5
52027.6
52115.4
52056.1
51989.9
51902
51767.1
51571.4
250676
234070
218999
205286
192776
181334
170846
161211
152341
144158
136596
129593
123098
117064
111449
106216
101332
96767.3
92496
88494.3
84741.2
81217.9
77907.7
74795.9
71869.5
69117.3
66529.4
64097.6
61815.1
59676.3
57676.9
55813.6
54084.2
52487.9
51025.1
49698.5
48516.2
47499.4
46708.1
46298.4
46690.7
48708.9
52268.5
54479.6
53781.5
53201.1
52655.8
52184.3
51872.5
51702.4
51590.2
51528.5
51540.4
51663.4
51858.4
51924.5
51872.5
51805.9
51682.6
51516.7
250676
234070
218999
205286
192776
181334
170846
161211
152341
144158
136596
129593
123098
117064
111449
106216
101331
96766.6
92494.9
88492.8
84739.1
81215
77903.9
74790.9
71863.1
69109.1
66519.3
64085.3
61800.4
59659.1
57657.1
55791.3
54060
52462.4
50999.7
49676.2
48503.1
47511.3
46785.1
46543.7
47355.6
50019.4
53407.9
54347
53638.1
52964.9
52305
51775.4
51513.8
51350.8
51240
51184.8
51199
51314.7
51582.3
51845.9
51806.7
51762.4
51682.4
51552.4
250676
234070
218999
205286
192776
181334
170846
161211
152341
144158
136596
129593
123098
117064
111449
106215
101331
96766.3
92494.5
88492.1
84738.1
81213.7
77902.1
74788.5
71860
69105.2
66514.5
64079.5
61793.5
59651.1
57648.2
55781.7
54050.2
52453.3
50993.1
49675.6
48516.6
47559.7
46920.6
46905.2
48229
51407.9
54260
54108.1
53449.5
52787.5
52105.8
51492.5
51221.5
51069.5
50965.3
50903.6
50900
51001.2
51274
51692.2
51804.8
51770.3
51699.5
51586.3
250676
234070
218999
205286
192776
181334
170846
161211
152341
144158
136596
129593
123098
117064
111449
106215
101331
96766.1
92494.2
88491.8
84737.7
81213.1
77901.3
74787.5
71858.7
69103.5
66512.4
64077
61790.7
59648
57644.9
55778.8
54048.1
52453.2
50997.1
49688
48548
47637.7
47112.6
47390.5
49290.6
52721.9
54820.2
53962.9
53280.1
52597.4
51924.5
51317.5
50995.1
50835.6
50725.1
50660.4
50644.2
50715.4
50953.9
51423.2
51779.4
51748.5
51705.8
51622.8
250676
234070
218999
205286
192776
181334
170846
161211
152341
144158
136596
129593
123098
117064
111449
106215
101331
96766.1
92494.1
88491.7
84737.5
81212.8
77900.9
74787
71858.1
69102.9
66511.6
64076.1
61789.8
59647.2
57644.5
55779.1
54050
52458
51007.1
49708.7
48593.1
47741.6
47364
48008.3
50495.3
53847.6
54869.3
54038.4
53239.8
52410.1
51706
51171.7
50818.3
50648.5
50526.7
50450.4
50419.3
50465.2
50653.7
51034.5
51564.1
51771.1
51731
51646.5
250676
234070
218999
205286
192776
181334
170846
161211
152341
144158
136596
129593
123098
117064
111449
106215
101331
96766
92494.1
88491.6
84737.4
81212.7
77900.8
74786.9
71857.9
69102.7
66511.4
64076
61789.8
59647.5
57645.5
55781.2
54054
52465.4
51020.9
49735.6
48650.3
47872.1
47681.7
48760.7
51750.5
54735.8
54773.2
53992
53190.4
52330
51534
51024.9
50670.3
50492.3
50357.8
50261.6
50212.5
50227.3
50351.6
50667
51167.6
51646.5
51713
51669
250676
234070
218999
205286
192776
181334
170846
161211
152341
144158
136596
129593
123098
117064
111449
106215
101331
96766
92494.1
88491.6
84737.4
81212.7
77900.8
74786.9
71857.9
69102.7
66511.4
64076.2
61790.2
59648.4
57647.1
55784.2
54059.2
52474.5
51037.5
49768
48720.4
48032.3
48073.5
49639.4
52960
55376.6
54665
53891.3
53100.5
52274.1
51437
50898
50547.3
50347.3
50207.7
50104.1
50041.3
50027.9
50091.8
50293.2
50706.4
51257.4
51638
51622.7
250676
234070
218999
205286
192776
181334
170846
161211
152341
144158
136596
129593
123098
117064
111449
106215
101331
96766
92494.1
88491.6
84737.4
81212.7
77900.8
74786.9
71857.9
69102.7
66511.6
64076.5
61790.8
59649.6
57649.2
55787.7
54065.2
52485
51056.5
49806
48803.4
48225.9
48547.5
50623.4
54046.5
55723.9
54678.5
53800.6
52992.6
52170.5
51381.5
50807.8
50439.3
50215.5
50072.9
49962.2
49888
49859
49877.6
49984.3
50244
50745.1
51297.4
51553.5
250676
234070
218999
205286
192776
181334
170846
161211
152341
144158
136596
129593
123098
117064
111449
106215
101331
96766
92494.1
88491.6
84737.4
81212.7
77900.8
74786.9
71858
69102.9
66511.8
64076.9
61791.6
59650.9
57651.4
55791.6
54071.9
52496.5
51078
49849.8
48900.3
48456.2
49104.2
51670.7
54965.4
55729.1
54772.6
53853.9
52843
52032.4
51328.5
50752.2
50359.1
50100.4
49955.4
49842.7
49758.9
49705
49696.3
49733.4
49899.6
50243
50731
51215.7
250676
234070
218999
205286
192776
181334
170846
161211
152341
144158
136596
129593
123098
117064
111449
106215
101331
96766
92494.1
88491.6
84737.4
81212.7
77900.8
74786.9
71858.1
69103
66512.1
64077.4
61792.4
59652.4
57653.9
55795.8
54079
52509.2
51101.9
49899.8
49012.1
48726.1
49740.2
52719.3
55704.4
55667.5
54758.6
53823.9
52811
51918.2
51268.4
50717.4
50307.6
50021.9
49838.4
49723.8
49639.1
49578.9
49545.6
49548.1
49624
49797.3
50186.2
50668.7
250676
234070
218999
205286
192776
181334
170846
161211
152341
144158
136596
129593
123098
117064
111449
106215
101331
96766
92494.1
88491.6
84737.4
81212.7
77900.9
74787
71858.2
69103.2
66512.4
64077.9
61793.4
59653.9
57656.6
55800.3
54086.7
52522.8
51128.3
49956.4
49140.3
49037.9
50443.7
53714.3
56258.3
55592.2
54697.5
53770.3
52793.6
51850.8
51210
50691.2
50278
49975.7
49752.2
49618.1
49527.1
49454.7
49412.8
49396.9
49410.7
49501.9
49712.8
50070.4
250676
234070
218999
205286
192776
181334
170846
161211
152341
144158
136596
129593
123098
117064
111449
106215
101331
96766
92494.1
88491.6
84737.4
81212.8
77900.9
74787
71858.3
69103.3
66512.7
64078.5
61794.3
59655.6
57659.4
55805
54094.8
52537.5
51157.3
50018.9
49284.6
49391
51199.9
54616.6
56640
55527.6
54621.7
53705.6
52760.4
51816.2
51163
50668.5
50262.1
49950.8
49710.4
49528.2
49422.4
49348.9
49291.6
49262.1
49252
49277.2
49386.1
49574.8
250676
234070
218999
205286
192776
181334
170846
161211
152341
144158
136596
129593
123098
117064
111449
106215
101331
96766
92494.1
88491.6
84737.4
81212.8
77900.9
74787.1
71858.4
69103.5
66513
64079.1
61795.3
59657.3
57662.3
55809.9
54103.3
52553
51188.6
50087.4
49445.1
49782.2
51985.1
55403.5
56782.6
55625.3
54541.1
53607.3
52695.2
51796
51130.8
50648.9
50254.1
49938.9
49691.2
49489.9
49337.7
49244.6
49184.4
49143.8
49116
49108.3
49147.2
49228.8
250676
234070
218999
205286
192776
181334
170846
161211
152341
144158
136596
129593
123098
117064
111449
106215
101331
96766.1
92494.1
88491.6
84737.5
81212.8
77901
74787.2
71858.5
69103.7
66513.4
64079.7
61796.4
59659.1
57665.3
55814.9
54112
52569.3
51222
50161.2
49620.6
50205.4
52769
56070.8
56783.2
55672.3
54594.7
53495.8
52604.4
51775.5
51111.8
50633.5
50250.2
49935.1
49683.7
49474.9
49304.2
49171.4
49080.6
49036.2
48997.1
48971.9
48967.6
48996.9
250676
234070
218999
205286
192776
181334
170846
161211
152341
144158
136596
129593
123098
117064
111449
106215
101331
96766.1
92494.1
88491.6
84737.5
81212.8
77901
74787.2
71858.6
69103.9
66513.7
64080.3
61797.4
59660.8
57668.3
55820
54121
52586.2
51257.4
50239.6
49809
50651.6
53521.2
56622
56743.4
55683
54620.9
53429.1
52517.3
51749.6
51101.5
50623.2
50249
49936.4
49683
49471.2
49292.4
49144.4
49025
48937.2
48888.8
48853.9
48832.6
48834.5
250676
234070
218999
205286
192776
181334
170846
161211
152341
144158
136596
129593
123098
117064
111449
106215
101331
96766.1
92494.1
88491.6
84737.5
81212.8
77901
74787.3
71858.7
69104.1
66514.1
64080.9
61798.5
59662.6
57671.2
55825.1
54130
52603.5
51294.1
50322.1
50008.1
51109.1
54219.8
57065.6
56698.9
55657.1
54583.4
53434.2
52450.9
51720.4
51095.9
50618.2
50249.9
49941.1
49686.8
49473.6
49290.7
49135.7
49004.6
48896.7
48813.2
48755.4
48730.9
48709.6
250676
234070
218999
205286
192776
181334
170846
161211
152341
144158
136596
129593
123098
117064
111449
106215
101331
96766.1
92494.1
88491.6
84737.5
81212.9
77901.1
74787.3
71858.8
69104.3
66514.4
64081.5
61799.5
59664.4
57674.2
55830.1
54138.9
52620.9
51331.3
50406.4
50213.1
51569.2
54852
57411.4
56653
55618.2
54550.7
53429.4
52408.1
51692.1
51092.3
50617.4
50252.6
49947.9
49693.5
49479.7
49294.9
49136.1
48999
48881.6
48784
48707.1
48651.6
48622.8
250676
234070
218999
205286
192776
181334
170846
161211
152341
144158
136596
129593
123098
117064
111449
106215
101331
96766.1
92494.1
88491.6
84737.5
81212.9
77901.1
74787.4
71858.9
69104.5
66514.8
64082.1
61800.5
59666
57677
55834.9
54147.6
52638.2
51368.2
50491
50420.2
52019.1
55410.5
57671.1
56611.6
55577.4
54517.8
53417.2
52382.1
51667.8
51089.3
50619.5
50256.8
49955.8
49701.9
49488
49302.4
49141.3
49000.9
48878.6
48773.7
48686.3
48617.7
48570.2
250676
234070
218999
205286
192776
181334
170846
161211
152341
144158
136596
129593
123098
117064
111449
106215
101331
96766.1
92494.1
88491.7
84737.5
81212.9
77901.1
74787.5
71859
69104.7
66515.1
64082.6
61801.4
59667.6
57679.6
55839.5
54156
52654.8
51404.2
50574.4
50623.8
52446.8
55892.7
57858.6
56576.5
55538.6
54485.2
53400.7
52366.7
51648.6
51086.6
50623.2
50261.9
49964.1
49711.1
49497.3
49311.4
49149
49006.5
48881.3
48772.2
48678.8
48602.5
48544.7
250676
234070
218999
205286
192776
181334
170846
161211
152341
144158
136596
129593
123098
117064
111449
106215
101331
96766.1
92494.1
88491.7
84737.5
81212.9
77901.2
74787.5
71859.1
69104.8
66515.4
64083.1
61802.3
59669.1
57682.1
55843.7
54163.8
52670.6
51438.4
50654.2
50818.4
52841.9
56300.3
57970
56589.1
55489.9
54448.7
53380.8
52357.4
51634.4
51084
50627.5
50267.3
49972.2
49720.3
49506.7
49320.8
49157.8
49014.4
48887.4
48775.8
48678.9
48597.5
48533.5
250676
234070
218999
205286
192776
181334
170846
161211
152341
144158
136596
129593
123098
117064
111449
106215
101331
96766.1
92494.2
88491.7
84737.5
81212.9
77901.2
74787.6
71859.2
69105
66515.6
64083.6
61803.1
59670.4
57684.3
55847.6
54170.9
52684.9
51469.9
50728.1
50998.1
53194.8
56636.9
58004
56661.4
55450.8
54396.3
53356
52351.2
51624.3
51081.6
50631.7
50272.7
49979.5
49728.8
49515.6
49329.9
49166.5
49022.3
48894.2
48780.9
48681.8
48597.4
48529.8
250676
234070
218999
205286
192776
181334
170846
161211
152341
144158
136596
129593
123098
117064
111449
106215
101331
96766.1
92494.2
88491.7
84737.5
81212.9
77901.2
74787.6
71859.3
69105.1
66515.9
64084
61803.7
59671.5
57686.2
55850.9
54177.1
52697.6
51497.7
50794
51157.4
53498
56907.8
58014
56710.2
55441.9
54349.9
53327.5
52346.4
51617.5
51079.8
50635.5
50277.5
49986
49736.3
49523.4
49338
49174.5
49029.8
48900.9
48786.4
48685.7
48599.3
48529.1
250676
234070
218999
205286
192776
181334
170846
161211
152341
144158
136596
129593
123098
117064
111449
106215
101331
96766.1
92494.2
88491.7
84737.5
81213
77901.2
74787.6
71859.3
69105.2
66516.1
64084.3
61804.3
59672.5
57687.8
55853.7
54182.2
52708.2
51521.2
50849.6
51291.3
53745.7
57118.2
58016.1
56724
55457.8
54313.7
53302
52342.4
51613.1
51078.4
50638.6
50281.7
49991.3
49742.6
49530
49344.8
49181.1
49036
48906.5
48791.2
48689.5
48601.6
48529.6
250676
234070
218999
205286
192776
181334
170846
161211
152341
144158
136596
129593
123098
117064
111449
106215
101331
96766.1
92494.2
88491.7
84737.5
81213
77901.2
74787.7
71859.4
69105.3
66516.2
64084.6
61804.7
59673.2
57689
55855.8
54186.2
52716.5
51539.4
50893.2
51395.6
53934.3
57272.5
58014
56728.8
55474.3
54288.2
53282.1
52339.2
51610.5
51077.6
50641.2
50285
49995.5
49747.5
49535.2
49350.2
49186.5
49041.2
48911.1
48795.1
48692.4
48603.3
48530.1
250676
234070
218999
205286
192776
181334
170846
161211
152341
144158
136596
129593
123098
117064
111449
106215
101331
96766.1
92494.2
88491.7
84737.5
81213
77901.3
74787.7
71859.4
69105.4
66516.3
64084.7
61805
59673.7
57689.9
55857.3
54189
52722.2
51551.9
50923.1
51467.1
54061.2
57373.4
58010.2
56731.5
55484.5
54271.7
53268
52336.5
51608.8
51076.8
50642.6
50287.2
49998.2
49750.7
49538.7
49353.9
49190.3
49044.9
48914.6
48798
48694.6
48604.3
48530.5
250676
234070
218999
205286
192776
181334
170846
161211
152341
144158
136596
129593
123098
117064
111449
106215
101331
96766.1
92494.2
88491.7
84737.5
81213
77901.3
74787.7
71859.4
69105.4
66516.4
64084.8
61805.2
59673.9
57690.3
55858
54190.4
52725
51558.2
50938.1
51502.7
54123.1
57421.3
58008.1
56732.8
55488.9
54264.3
53261.4
52335
51607.8
51076.3
50643.2
50288.1
49999.4
49752.3
49540.4
49355.7
49192.1
49046.7
48916.4
48799.7
48695.9
48604.8
48530.9
250676
234070
218999
205286
192776
181334
170846
161211
152341
144158
136596
129593
123098
117064
111449
106215
101331
96766.1
92494.2
88491.7
84737.5
81213
77901.3
74787.7
71859.4
69105.4
66516.4
64084.8
61805.2
59673.9
57690.3
55858
54190.4
52725
51558.2
50938.1
51502.7
54123.1
57421.3
58008.1
56732.9
55488.9
54264.3
53261.5
52335
51607.8
51076.4
50643.3
50288.2
49999.5
49752.3
49540.4
49355.8
49192.2
49046.8
48916.5
48799.8
48696
48604.9
48531
250676
234070
218999
205286
192776
181334
170846
161211
152341
144158
136596
129593
123098
117064
111449
106215
101331
96766.1
92494.2
88491.7
84737.5
81213
77901.3
74787.7
71859.4
69105.4
66516.3
64084.7
61805
59673.7
57689.9
55857.3
54189
52722.2
51551.9
50923.1
51467.1
54061.2
57373.4
58010.3
56731.5
55484.6
54271.8
53268.1
52336.6
51608.9
51076.9
50642.8
50287.4
49998.4
49750.9
49538.9
49354.1
49190.6
49045.1
48914.9
48798.3
48694.8
48604.5
48530.7
250676
234070
218999
205286
192776
181334
170846
161211
152341
144158
136596
129593
123098
117064
111449
106215
101331
96766.1
92494.2
88491.7
84737.5
81213
77901.2
74787.7
71859.4
69105.3
66516.2
64084.6
61804.7
59673.2
57689
55855.8
54186.2
52716.4
51539.4
50893.2
51395.6
53934.3
57272.6
58014.1
56728.9
55474.5
54288.3
53282.2
52339.4
51610.7
51077.8
50641.4
50285.3
49995.8
49747.8
49535.6
49350.6
49187
49041.6
48911.5
48795.5
48692.8
48603.7
48530.5
250676
234070
218999
205286
192776
181334
170846
161211
152341
144158
136596
129593
123098
117064
111449
106215
101331
96766.1
92494.2
88491.7
84737.5
81213
77901.2
74787.6
71859.3
69105.2
66516.1
64084.3
61804.3
59672.5
57687.8
55853.7
54182.2
52708.2
51521.2
50849.6
51291.2
53745.7
57118.3
58016.2
56724.2
55457.9
54313.9
53302.1
52342.5
51613.3
51078.7
50638.9
50282
49991.7
49743.1
49530.5
49345.3
49181.7
49036.6
48907.1
48791.8
48690.1
48602.2
48530.1
250676
234070
218999
205286
192776
181334
170846
161211
152341
144158
136596
129593
123098
117064
111449
106215
101331
96766.1
92494.2
88491.7
84737.5
81212.9
77901.2
74787.6
71859.3
69105.1
66515.9
64084
61803.7
59671.5
57686.2
55850.9
54177.1
52697.6
51497.7
50794
51157.3
53498
56907.9
58014.2
56710.4
55442
54350.1
53327.7
52346.6
51617.7
51080
50635.8
50277.9
49986.4
49736.8
49524
49338.6
49175.1
49030.5
48901.6
48787.1
48686.4
48600
48529.8
250676
234070
218999
205286
192776
181334
170846
161211
152341
144158
136596
129593
123098
117064
111449
106215
101331
96766.1
92494.2
88491.7
84737.5
81212.9
77901.2
74787.6
71859.2
69105
66515.6
64083.6
61803.1
59670.4
57684.3
55847.6
54170.9
52684.9
51469.9
50728.1
50998
53194.8
56636.9
58004.1
56661.6
55451
54396.5
53356.2
52351.4
51624.6
51081.9
50632.1
50273.1
49980.1
49729.4
49516.2
49330.6
49167.3
49023.1
48894.9
48781.7
48682.5
48598.1
48530.6
250676
234070
218999
205286
192776
181334
170846
161211
152341
144158
136596
129593
123098
117064
111449
106215
101331
96766.1
92494.1
88491.7
84737.5
81212.9
77901.2
74787.5
71859.1
69104.8
66515.4
64083.1
61802.3
59669.1
57682.1
55843.7
54163.8
52670.5
51438.4
50654.2
50818.3
52841.8
56300.3
57970.2
56589.3
55490.1
54448.9
53381
52357.6
51634.6
51084.2
50627.9
50267.8
49972.7
49720.9
49507.4
49321.5
49158.6
49015.1
48888.2
48776.6
48679.7
48598.3
48534.3
250676
234070
218999
205286
192776
181334
170846
161211
152341
144158
136596
129593
123098
117064
111449
106215
101331
96766.1
92494.1
88491.7
84737.5
81212.9
77901.1
74787.5
71859
69104.7
66515.1
64082.6
61801.4
59667.6
57679.6
55839.5
54156
52654.8
51404.2
50574.3
50623.8
52446.7
55892.7
57858.8
56576.7
55538.8
54485.3
53400.9
52366.9
51648.8
51086.8
50623.6
50262.3
49964.6
49711.7
49498
49312.1
49149.7
49007.2
48882
48773
48679.6
48603.3
48545.4
250676
234070
218999
205286
192776
181334
170846
161211
152341
144158
136596
129593
123098
117064
111449
106215
101331
96766.1
92494.1
88491.6
84737.5
81212.9
77901.1
74787.4
71858.9
69104.5
66514.8
64082.1
61800.5
59666
57677
55834.9
54147.6
52638.2
51368.2
50491
50420.1
52019
55410.4
57671.2
56611.8
55577.5
54517.9
53417.3
52382.2
51668
51089.5
50619.8
50257.1
49956.2
49702.4
49488.6
49303
49142
49001.6
48879.3
48774.4
48687
48618.4
48570.9
250676
234070
218999
205286
192776
181334
170846
161211
152341
144158
136596
129593
123098
117064
111449
106215
101331
96766.1
92494.1
88491.6
84737.5
81212.9
77901.1
74787.3
71858.8
69104.3
66514.4
64081.5
61799.5
59664.4
57674.2
55830.1
54138.9
52620.9
51331.3
50406.4
50213.1
51569.1
54851.9
57411.4
56653.1
55618.3
54550.8
53429.5
52408.1
51692.2
51092.4
50617.6
50252.8
49948.2
49693.9
49480.1
49295.4
49136.6
48999.5
48882.2
48784.6
48707.7
48652.1
48623.3
250676
234070
218999
205286
192776
181334
170846
161211
152341
144158
136596
129593
123098
117064
111449
106215
101331
96766.1
92494.1
88491.6
84737.5
81212.8
77901
74787.3
71858.7
69104.1
66514.1
64080.9
61798.5
59662.6
57671.2
55825.1
54130
52603.5
51294.1
50322.1
50008
51109
54219.6
57065.5
56698.9
55657.1
54583.4
53434.2
52450.9
51720.4
51095.9
50618.2
50250
49941.3
49687.1
49473.9
49291.1
49136.1
49005
48897.1
48813.6
48755.8
48731.2
48709.9
250676
234070
218999
205286
192776
181334
170846
161211
152341
144158
136596
129593
123098
117064
111449
106215
101331
96766.1
92494.1
88491.6
84737.5
81212.8
77901
74787.2
71858.6
69103.9
66513.7
64080.3
61797.4
59660.8
57668.3
55820
54121
52586.2
51257.4
50239.6
49809
50651.5
53521
56621.8
56743.4
55682.9
54620.9
53429
52517.3
51749.5
51101.4
50623.2
50249
49936.5
49683.1
49471.3
49292.5
49144.6
49025.2
48937.4
48889
48854
48832.7
48834.5
250676
234070
218999
205286
192776
181334
170846
161211
152341
144158
136596
129593
123098
117064
111449
106215
101331
96766
92494.1
88491.6
84737.4
81212.8
77901
74787.2
71858.5
69103.7
66513.4
64079.7
61796.4
59659.1
57665.3
55814.9
54112
52569.3
51222
50161.2
49620.6
50205.3
52768.7
56070.6
56783.1
55672.2
54594.6
53495.7
52604.3
51775.4
51111.6
50633.3
50250.1
49935
49683.7
49474.9
49304.2
49171.4
49080.6
49036.2
48997
48971.9
48967.5
48996.8
250676
234070
218999
205286
192776
181334
170846
161211
152341
144158
136596
129593
123098
117064
111449
106215
101331
96766
92494.1
88491.6
84737.4
81212.8
77900.9
74787.1
71858.4
69103.5
66513
64079.1
61795.3
59657.3
57662.3
55809.9
54103.3
52553
51188.6
50087.4
49445
49782.1
51984.8
55403.2
56782.3
55625
54540.9
53607
52694.9
51795.7
51130.6
50648.6
50253.9
49938.7
49691.1
49489.8
49337.5
49244.5
49184.2
49143.6
49115.8
49108
49146.9
49228.5
250676
234070
218999
205286
192776
181334
170846
161211
152341
144158
136596
129593
123098
117064
111449
106215
101331
96766
92494.1
88491.6
84737.4
81212.8
77900.9
74787
71858.3
69103.3
66512.7
64078.5
61794.3
59655.6
57659.4
55805
54094.8
52537.5
51157.3
50018.9
49284.6
49390.9
51199.7
54616.2
56639.6
55527.3
54621.3
53705.3
52760.1
51815.8
51162.6
50668.2
50261.8
49950.5
49710.1
49527.9
49422.1
49348.6
49291.2
49261.7
49251.6
49276.7
49385.7
49574.4
250676
234070
218999
205286
192776
181334
170846
161211
152341
144158
136596
129593
123098
117064
111449
106215
101331
96766
92494.1
88491.6
84737.4
81212.7
77900.9
74787
71858.2
69103.2
66512.4
64077.9
61793.4
59653.9
57656.6
55800.3
54086.7
52522.9
51128.3
49956.4
49140.3
49037.8
50443.5
53713.8
56257.8
55591.8
54697
53769.9
52793.1
51850.4
51209.6
50690.8
50277.5
49975.3
49751.7
49617.7
49526.6
49454.2
49412.3
49396.4
49410.2
49501.4
49712.2
50069.9
250676
234070
218999
205286
192776
181334
170846
161211
152341
144158
136596
129593
123098
117064
111449
106215
101331
96766
92494.1
88491.6
84737.4
81212.7
77900.8
74786.9
71858.1
69103
66512.1
64077.4
61792.4
59652.4
57653.9
55795.8
54079
52509.2
51101.9
49899.8
49012
48726.1
49740
52718.9
55703.8
55666.9
54758
53823.3
52810.5
51917.7
51267.9
50716.9
50307.1
50021.4
49837.9
49723.2
49638.5
49578.3
49545
49547.5
49623.4
49796.7
50185.5
50668.1
250676
234070
218999
205286
192776
181334
170846
161211
152341
144158
136596
129593
123098
117064
111449
106215
101331
96766
92494.1
88491.6
84737.4
81212.7
77900.8
74786.9
71858
69102.9
66511.8
64076.9
61791.6
59650.9
57651.5
55791.6
54071.9
52496.5
51078
49849.8
48900.3
48456.2
49104.1
51670.3
54964.7
55728.5
54771.9
53853.2
52842.4
52031.8
51328
50751.7
50358.5
50099.8
49954.8
49842.1
49758.3
49704.3
49695.7
49732.7
49898.9
50242.2
50730.2
51214.8
250676
234070
218999
205286
192776
181334
170846
161211
152341
144158
136596
129593
123098
117064
111449
106215
101331
96766
92494.1
88491.6
84737.4
81212.7
77900.8
74786.9
71857.9
69102.7
66511.6
64076.5
61790.8
59649.6
57649.2
55787.7
54065.2
52485
51056.5
49806
48803.4
48225.9
48547.3
50623
54045.8
55723.2
54677.7
53799.9
52992
52169.9
51380.8
50807.2
50438.7
50214.9
50072.2
49961.5
49887.3
49858.3
49877
49983.7
50243.3
50744.3
51296.2
51552
250676
234070
218999
205286
192776
181334
170846
161211
152341
144158
136596
129593
123098
117064
111449
106215
101331
96766
92494.1
88491.6
84737.4
81212.7
77900.8
74786.9
71857.9
69102.7
66511.4
64076.2
61790.2
59648.4
57647.1
55784.2
54059.2
52474.5
51037.5
49768
48720.4
48032.3
48073.4
49639.1
52959.3
55375.7
54664.2
53890.5
53099.8
52273.4
51436.3
50897.4
50546.7
50346.7
50207.1
50103.5
50040.6
50027.3
50091.2
50292.5
50705.6
51256.3
51636.5
51621
250676
234070
218999
205286
192776
181334
170846
161211
152341
144158
136596
129593
123098
117064
111449
106215
101331
96766
92494.1
88491.6
84737.4
81212.7
77900.8
74786.9
71857.9
69102.7
66511.4
64076
61789.8
59647.6
57645.5
55781.2
54054
52465.4
51020.9
49735.6
48650.3
47872.1
47681.6
48760.4
51749.9
54734.8
54772.3
53991.1
53189.5
52329.2
51533.2
51024.2
50669.7
50491.7
50357.1
50261
50211.9
50226.7
50351
50666.4
51166.7
51645
51711.2
51667.2
250676
234070
218999
205286
192776
181334
170846
161211
152341
144158
136596
129593
123098
117064
111449
106215
101331
96766.1
92494.1
88491.7
84737.5
81212.8
77901
74787.1
71858.1
69102.9
66511.6
64076.2
61789.8
59647.3
57644.6
55779.2
54050
52458
51007.2
49708.8
48593.1
47741.6
47364
48008.1
50494.7
53846.6
54868.3
54037.4
53238.8
52409.2
51705.2
51171
50817.6
50647.8
50526
50449.8
50418.8
50464.7
50653.2
51033.8
51563
51769.3
51729.4
51645
250676
234070
218999
205286
192776
181334
170846
161211
152341
144158
136596
129593
123098
117064
111449
106215
101331
96766.1
92494.2
88491.8
84737.7
81213.1
77901.3
74787.5
71858.7
69103.6
66512.5
64077.1
61790.8
59648.1
57645.1
55778.9
54048.3
52453.4
50997.3
49688.2
48548.2
47637.8
47112.6
47390.4
49290.1
52721
54819
53961.9
53279
52596.4
51923.6
51316.7
50994.5
50834.9
50724.5
50660
50643.8
50715.1
50953.6
51422.8
51778.2
51747.1
51704.5
51621.6
250676
234070
218999
205286
192776
181334
170846
161211
152341
144158
136596
129593
123098
117064
111449
106215
101331
96766.3
92494.5
88492.1
84738.2
81213.8
77902.2
74788.7
71860.2
69105.5
66514.8
64079.8
61793.9
59651.6
57648.6
55782.2
54050.7
52453.9
50993.7
49676.2
48517.1
47560.2
46920.9
46905.4
48228.8
51407.2
54258.9
54107.3
53448.6
52786.5
52104.9
51491.8
51220.9
51069.1
50965
50903.5
50900.2
51001.6
51274.5
51692.3
51804.3
51770
51699.2
51586.5
250676
234070
218999
205286
192776
181334
170846
161211
152341
144158
136596
129593
123098
117064
111449
106216
101331
96766.7
92495
88492.9
84739.3
81215.3
77904.2
74791.3
71863.6
69109.8
66520
64086.2
61801.4
59660.3
57658.4
55792.7
54061.4
52463.9
51001.3
49677.8
48504.7
47512.9
46786.6
46545
47356.5
50019.8
53407.9
54347.2
53638
52964.6
52305
51775.6
51514.3
51351.6
51241.2
51186.3
51201.1
51317.3
51585
51848.2
51809
51764.9
51684.9
51554.9
250676
234070
218999
205286
192776
181334
170846
161211
152341
144158
136596
129593
123098
117064
111449
106216
101332
96767.5
92496.2
88494.6
84741.6
81218.5
77908.5
74797
71870.9
69118.9
66531.3
64099.8
61817.7
59679.2
57680.1
55817.1
54088
52492
51029.4
49703
48520.8
47504.1
46712.9
46303.1
46695.1
48712.9
52272.1
54483.3
53785.1
53204.5
52659.3
52188.2
51876.9
51707.5
51596.2
51535.4
51548.2
51672.2
51867.7
51933.6
51882
51815.6
51692.4
51525.6
250676
234070
218999
205286
192776
181334
170846
161211
152341
144158
136596
129593
123099
117064
111450
106217
101333
96769.1
92498.6
88498
84746.3
81224.9
77917.1
74808.1
71885.1
69136.8
66553.4
64126.7
61849.7
59716.8
57723.4
55866.3
54142.9
52551.9
51093.2
49768.4
48582.8
47551.1
46714.1
46183.5
46255.7
47640.4
50934.8
54076.9
54228.1
53677.5
53154.9
52654.4
52358.3
52197.2
52077.8
52026.6
52012.5
52053.3
52141.9
52083
52017
51928.6
51792.6
51595.4
250676
234070
218999
205286
192776
181334
170846
161211
152341
144158
136596
129594
123099
117065
111450
106218
101335
96772.1
92502.9
88504.2
84754.9
81236.6
77932.7
74828.5
71911.2
69169.5
66593.7
64175.4
61907.8
59785
57802.4
55956.2
54243.9
52663.7
51214.8
49898
48716.6
47680.2
46816.5
46203.4
46045.6
46888.6
49598.3
53369.7
54926.8
54275.3
53788.3
53381
53090.8
52911
52770.7
52669.4
52605.2
52573
52530.4
52435.9
52331.8
52194.1
51988.8
51706
250676
234070
218999
205286
192776
181334
170846
161211
152341
144158
136596
129594
123099
117066
111452
106220
101338
96777.1
92510.2
88514.6
84769.4
81256.3
77958.9
74862.6
71954.7
69224
66660.8
64256.7
62004.6
59898.6
57933.7
56106.2
54412.9
52851.7
51421.3
50121.4
48953.9
47924.8
47052.3
46389.3
46077.2
46502.7
48513.3
52410.7
55452.9
55286.7
54843.9
54445
54138.1
53922.5
53752.5
53617.9
53491.9
53359.5
53217.4
53061
52880
52643.5
52329.4
51993.2
250676
234070
218999
205286
192776
181334
170846
161211
152341
144158
136596
129594
123100
117067
111454
106223
101343
96784.7
92521.4
88530.5
84791.6
81286.4
77998.9
74914.6
72021.1
69307
66762.8
64380
62151.2
60070.4
58132.5
56333.1
54668.9
53137.3
51736.2
50464.7
49323.2
48315.1
47452
46768.6
46363.3
46499.1
47863.1