/*--------------------------------*- C++ -*----------------------------------*\
  =========                 |
  \\      /  F ield         | OpenFOAM: The Open Source CFD Toolbox
   \\    /   O peration     | Website:  https://openfoam.org
    \\  /    A nd           | Version:  9
     \\/     M anipulation  |
\*---------------------------------------------------------------------------*/
FoamFile
{
    format      ascii;
    class       volScalarField;
    location    "0.006";
    object      k;
}
// * * * * * * * * * * * * * * * * * * * * * * * * * * * * * * * * * * * * * //

dimensions      [0 2 -2 0 0 0 0];

internalField   nonuniform List<scalar> 
36400
(
969.268
934.541
902.034
871.548
842.908
815.956
790.554
766.575
743.909
722.454
702.121
682.828
664.504
647.082
630.506
614.724
599.691
585.369
571.723
558.726
546.352
534.58
523.392
512.773
502.71
493.188
484.197
475.726
467.765
460.305
453.335
446.849
440.839
435.299
430.225
425.614
421.465
417.785
414.587
411.907
409.85
408.728
409.319
413.806
428.634
467.552
529.505
573.377
591.227
606.754
617.698
623.303
627.469
630.431
632.022
632.806
642.039
647.949
651.582
711.264
969.268
934.541
902.034
871.548
842.908
815.956
790.554
766.575
743.909
722.454
702.12
682.827
664.501
647.077
630.498
614.711
599.673
585.342
571.685
558.673
546.279
534.483
523.266
512.612
502.506
492.938
483.894
475.365
467.341
459.814
452.775
446.218
440.137
434.526
429.382
424.705
420.496
416.764
413.527
410.834
408.831
407.917
409.088
415.154
433.328
470.489
505.33
512.829
514.426
515.889
517.78
521.305
525.216
529.347
533.28
536.896
540.662
544.583
550.464
561.997
969.268
934.541
902.034
871.548
842.908
815.956
790.553
766.575
743.908
722.453
702.118
682.824
664.495
647.068
630.484
614.69
599.641
585.295
571.618
558.579
546.151
534.313
523.043
512.327
502.149
492.496
483.359
474.727
466.593
458.948
451.786
445.103
438.894
433.157
427.889
423.094
418.775
414.945
411.632
408.909
406.977
406.385
408.538
417.343
440.302
474.789
495.118
495.804
495.32
493.94
491.33
489.088
487.492
486.376
485.918
485.892
486.238
486.967
488.715
492.112
969.268
934.541
902.034
871.548
842.908
815.956
790.553
766.574
743.907
722.452
702.116
682.82
664.489
647.058
630.468
614.665
599.602
585.239
571.537
558.466
545.997
534.106
522.773
511.981
501.714
491.96
482.708
473.95
465.679
457.889
450.577
443.739
437.374
431.481
426.063
421.122
416.67
412.724
409.326
406.583
404.793
404.725
408.455
421.19
448.366
476.533
484.551
483.466
482.68
481.606
479.833
477.244
474.361
471.823
469.501
467.545
465.939
464.61
463.732
463.705
969.268
934.541
902.034
871.548
842.908
815.956
790.553
766.574
743.907
722.45
702.114
682.816
664.483
647.048
630.451
614.639
599.564
585.183
571.457
558.354
545.844
533.901
522.505
511.637
501.28
491.424
482.057
473.172
464.764
456.829
449.364
442.37
435.847
429.798
424.228
419.144
414.562
410.508
407.043
404.326
402.792
403.556
409.652
427.051
455.141
473.726
474.055
473.039
471.957
470.858
469.758
468.352
466.453
464.41
462.024
459.649
457.448
455.647
453.979
452.754
969.268
934.541
902.034
871.548
842.907
815.956
790.553
766.574
743.906
722.449
702.112
682.813
664.478
647.039
630.437
614.618
599.532
585.135
571.388
558.258
545.712
533.725
522.274
511.34
500.907
490.961
481.494
472.498
463.97
455.907
448.308
441.177
434.516
428.331
422.63
417.425
412.736
408.603
405.114
402.505
401.404
403.456
412.824
434.558
459.292
467.44
465.575
464.145
463.006
462.077
461.192
460.332
459.392
458.258
456.83
455.259
453.336
451.56
449.572
448.048
969.268
934.541
902.034
871.548
842.907
815.956
790.553
766.574
743.906
722.449
702.111
682.811
664.474
647.033
630.427
614.602
599.507
585.099
571.336
558.185
545.612
533.591
522.098
511.113
500.62
490.605
481.06
471.978
463.356
455.193
447.49
440.252
433.484
427.194
421.393
416.099
411.339
407.168
403.715
401.329
400.908
404.854
418.236
442.377
460.935
460.892
459.144
457.491
456.231
455.394
454.739
454.22
453.705
453.113
452.445
451.675
450.749
449.494
447.776
445.912
969.268
934.541
902.034
871.548
842.907
815.956
790.553
766.574
743.906
722.448
702.11
682.809
664.471
647.028
630.42
614.59
599.49
585.074
571.301
558.135
545.543
533.499
521.976
510.956
500.421
490.358
480.759
471.616
462.928
454.694
446.917
439.604
432.761
426.398
420.532
415.184
410.39
406.227
402.884
400.864
401.46
408.029
425.62
448.933
458.962
456.179
454.147
452.423
451.25
450.616
450.126
449.801
449.645
449.642
449.549
449.134
448.646
447.95
446.835
445.256
969.268
934.541
902.034
871.548
842.907
815.956
790.553
766.573
743.905
722.448
702.11
682.808
664.469
647.025
630.415
614.584
599.48
585.058
571.279
558.103
545.5
533.441
521.9
510.857
500.295
490.202
480.567
471.385
462.654
454.375
446.551
439.19
432.3
425.895
419.992
414.62
409.828
405.721
402.572
401.093
403.142
413.028
434.017
453.551
455.507
453.288
451.031
448.736
447.51
446.973
446.6
446.566
446.705
447.135
447.818
447.606
447.339
446.926
446.219
445.13
969.268
934.541
902.034
871.548
842.907
815.956
790.553
766.573
743.905
722.448
702.109
682.808
664.468
647.024
630.413
614.58
599.474
585.05
571.266
558.085
545.475
533.407
521.855
510.799
500.222
490.11
480.454
471.249
462.493
454.188
446.336
438.948
432.033
425.607
419.692
414.321
409.561
405.56
402.707
401.99
406.016
419.697
442.102
456.154
453.247
450.813
448.394
446.25
444.925
444.327
443.993
443.898
444.194
445.122
446.445
446.97
446.787
446.502
445.867
444.96
969.268
934.541
902.034
871.548
842.907
815.956
790.553
766.573
743.905
722.448
702.109
682.807
664.468
647.023
630.411
614.578
599.471
585.045
571.259
558.076
545.462
533.389
521.832
510.768
500.182
490.061
480.394
471.176
462.407
454.087
446.222
438.82
431.895
425.463
419.552
414.203
409.504
405.66
403.213
403.539
410.123
427.59
448.828
455.504
452.548
449.555
446.437
443.928
442.885
442.318
441.982
441.918
442.223
443.105
444.865
446.569
446.455
446.303
445.928
445.24
969.268
934.541
902.034
871.548
842.907
815.956
790.553
766.573
743.905
722.448
702.109
682.807
664.468
647.023
630.411
614.577
599.469
585.043
571.256
558.071
545.456
533.38
521.82
510.753
500.163
490.036
480.363
471.14
462.363
454.037
446.166
438.761
431.835
425.408
419.512
414.201
409.589
405.961
404.052
405.768
415.431
435.831
453.818
454.223
451.529
448.585
445.327
442.307
441.19
440.681
440.377
440.268
440.462
441.255
443.053
445.688
446.468
446.377
446.058
445.474
969.268
934.541
902.034
871.548
842.907
815.956
790.553
766.573
743.905
722.448
702.109
682.807
664.467
647.022
630.411
614.576
599.468
585.042
571.254
558.069
545.453
533.376
521.814
510.746
500.153
490.024
480.349
471.123
462.344
454.016
446.144
438.74
431.819
425.404
419.533
414.273
409.777
406.435
405.228
408.731
421.814
443.55
457.098
453.471
450.608
447.523
444.298
441.308
439.874
439.309
438.962
438.83
438.944
439.555
441.151
444.101
446.336
446.261
446.109
445.707
969.268
934.541
902.034
871.548
842.907
815.956
790.553
766.573
743.905
722.448
702.109
682.807
664.467
647.022
630.41
614.576
599.468
585.041
571.253
558.068
545.451
533.374
521.812
510.742
500.149
490.019
480.343
471.116
462.337
454.009
446.139
438.739
431.827
425.429
419.589
414.394
410.047
407.065
406.762
412.479
428.986
450.115
457.44
453.985
450.44
446.472
443.045
440.473
438.848
438.214
437.793
437.586
437.607
438.061
439.354
441.789
445.073
446.406
446.274
445.864
969.268
934.541
902.034
871.548
842.907
815.956
790.553
766.573
743.905
722.448
702.109
682.807
664.467
647.022
630.41
614.576
599.468
585.041
571.253
558.068
545.451
533.373
521.811
510.741
500.148
490.018
480.341
471.114
462.336
454.01
446.143
438.749
431.848
425.471
419.669
414.553
410.39
407.857
408.694
417.014
436.392
455.274
456.967
453.779
450.206
446.053
442.07
439.63
437.991
437.303
436.801
436.47
436.379
436.642
437.546
439.59
442.722
445.684
446.176
446.013
969.268
934.541
902.034
871.548
842.907
815.956
790.553
766.573
743.905
722.448
702.109
682.807
664.467
647.022
630.41
614.576
599.468
585.041
571.253
558.067
545.45
533.373
521.81
510.741
500.148
490.017
480.341
471.115
462.338
454.014
446.152
438.765
431.878
425.523
419.766
414.746
410.812
408.828
411.069
422.273
443.47
458.999
456.427
453.258
449.734
445.77
441.538
438.908
437.283
436.46
435.922
435.542
435.365
435.454
435.989
437.344
439.965
443.383
445.746
445.751
969.268
934.541
902.034
871.548
842.907
815.956
790.553
766.573
743.905
722.448
702.109
682.807
664.467
647.022
630.41
614.576
599.468
585.041
571.253
558.067
545.45
533.373
521.81
510.741
500.148
490.018
480.342
471.117
462.341
454.02
446.163
438.785
431.912
425.583
419.878
414.972
411.311
410
413.929
428.116
449.788
461.039
456.588
452.797
449.156
445.202
441.249
438.406
436.665
435.695
435.134
434.708
434.459
434.451
434.71
435.489
437.187
440.325
443.733
445.352
969.268
934.541
902.034
871.548
842.907
815.956
790.553
766.573
743.905
722.448
702.109
682.807
664.467
647.022
630.41
614.576
599.468
585.041
571.253
558.067
545.45
533.373
521.81
510.741
500.148
490.018
480.343
471.119
462.345
454.027
446.175
438.807
431.95
425.65
420.004
415.233
411.894
411.391
417.272
434.286
455.105
461.136
457.198
453.173
448.334
444.431
440.974
438.109
436.213
435.029
434.452
434.01
433.701
433.539
433.63
433.983
435.111
437.306
440.357
443.357
969.268
934.541
902.034
871.548
842.907
815.956
790.553
766.573
743.905
722.448
702.109
682.807
664.467
647.022
630.41
614.576
599.468
585.041
571.253
558.067
545.45
533.373
521.811
510.741
500.148
490.019
480.345
471.121
462.35
454.035
446.189
438.831
431.991
425.724
420.145
415.531
412.565
413.018
421.07
440.42
459.371
460.861
457.181
453.054
448.2
443.803
440.653
437.936
435.934
434.582
433.772
433.315
432.997
432.796
432.735
432.875
433.454
434.619
437.081
440.094
969.268
934.541
902.034
871.548
842.907
815.956
790.553
766.573
743.905
722.448
702.109
682.807
664.467
647.022
630.41
614.576
599.468
585.041
571.253
558.067
545.451
533.373
521.811
510.741
500.149
490.02
480.346
471.124
462.354
454.044
446.204
438.856
432.035
425.804
420.301
415.868
413.335
414.89
425.246
446.201
462.571
460.508
456.89
452.795
448.144
443.449
440.343
437.812
435.787
434.33
433.274
432.701
432.342
432.064
431.949
431.976
432.174
432.838
434.224
436.498
969.268
934.541
902.034
871.548
842.907
815.956
790.553
766.573
743.905
722.448
702.109
682.807
664.467
647.022
630.41
614.576
599.468
585.041
571.253
558.067
545.451
533.373
521.811
510.742
500.149
490.021
480.348
471.127
462.36
454.053
446.219
438.883
432.081
425.889
420.471
416.24
414.2
417.004
429.708
451.417
464.788
460.212
456.511
452.469
447.993
443.285
440.099
437.708
435.721
434.207
433.045
432.178
431.73
431.444
431.234
431.176
431.226
431.486
432.251
433.503
969.268
934.541
902.034
871.548
842.907
815.956
790.553
766.573
743.905
722.448
702.109
682.807
664.467
647.022
630.41
614.576
599.468
585.041
571.253
558.067
545.451
533.373
521.811
510.742
500.15
490.022
480.349
471.13
462.365
454.062
446.235
438.91
432.13
425.979
420.656
416.647
415.161
419.337
434.313
455.947
465.649
460.839
456.105
451.944
447.65
443.204
439.942
437.621
435.7
434.161
432.953
431.967
431.236
430.832
430.603
430.477
430.418
430.475
430.812
431.408
969.268
934.541
902.034
871.548
842.907
815.956
790.553
766.573
743.905
722.448
702.109
682.807
664.467
647.022
630.41
614.576
599.468
585.041
571.253
558.067
545.451
533.374
521.811
510.742
500.15
490.022
480.351
471.133
462.371
454.072
446.252
438.939
432.18
426.074
420.852
417.086
416.21
421.851
438.884
459.777
465.712
461.164
456.471
451.342
447.155
443.117
439.861
437.557
435.704
434.162
432.93
431.898
431.052
430.406
429.992
429.842
429.713
429.663
429.735
430.008
969.268
934.541
902.034
871.548
842.907
815.956
790.553
766.573
743.905
722.448
702.109
682.807
664.467
647.022
630.41
614.576
599.468
585.041
571.253
558.068
545.451
533.374
521.811
510.743
500.151
490.023
480.353
471.136
462.376
454.081
446.269
438.967
432.231
426.172
421.061
417.552
417.333
424.491
443.248
462.937
465.548
461.278
456.669
450.997
446.68
442.995
439.83
437.523
435.721
434.193
432.948
431.896
431.001
430.261
429.671
429.258
429.073
428.962
428.929
429.034
969.268
934.541
902.034
871.548
842.907
815.956
790.553
766.573
743.905
722.448
702.109
682.807
664.467
647.022
630.41
614.576
599.468
585.041
571.253
558.068
545.451
533.374
521.811
510.743
500.151
490.024
480.355
471.14
462.382
454.091
446.285
438.996
432.283
426.273
421.277
418.042
418.518
427.188
447.282
465.479
465.354
461.178
456.494
451.067
446.325
442.852
439.824
437.518
435.749
434.243
432.991
431.93
431.009
430.226
429.564
429.027
428.629
428.379
428.327
428.289
969.268
934.541
902.034
871.548
842.907
815.956
790.553
766.573
743.905
722.448
702.109
682.807
664.467
647.022
630.41
614.576
599.468
585.041
571.253
558.068
545.451
533.374
521.812
510.743
500.152
490.025
480.357
471.143
462.387
454.101
446.301
439.024
432.334
426.374
421.496
418.542
419.736
429.889
450.92
467.464
465.149
461
456.343
451.073
446.105
442.711
439.827
437.536
435.786
434.304
433.05
431.985
431.053
430.245
429.547
428.953
428.467
428.101
427.86
427.776
969.268
934.541
902.034
871.548
842.907
815.956
790.553
766.573
743.905
722.448
702.109
682.807
664.467
647.022
630.41
614.576
599.468
585.041
571.253
558.068
545.451
533.374
521.812
510.743
500.152
490.026
480.358
471.146
462.393
454.11
446.317
439.052
432.384
426.475
421.713
419.044
420.963
432.52
454.122
468.961
464.964
460.807
456.188
451.032
445.981
442.592
439.832
437.57
435.831
434.369
433.118
432.052
431.114
430.293
429.575
428.95
428.42
427.99
427.669
427.47
969.268
934.541
902.034
871.548
842.907
815.956
790.553
766.573
743.905
722.448
702.109
682.807
664.467
647.022
630.41
614.576
599.468
585.041
571.253
558.068
545.451
533.374
521.812
510.744
500.153
490.027
480.36
471.149
462.398
454.118
446.332
439.078
432.432
426.572
421.925
419.538
422.167
435.013
456.881
470.047
464.809
460.622
456.031
450.963
445.916
442.501
439.835
437.611
435.878
434.435
433.189
432.123
431.183
430.354
429.623
428.98
428.425
427.958
427.591
427.329
969.268
934.541
902.034
871.548
842.907
815.956
790.553
766.573
743.905
722.448
702.109
682.807
664.467
647.022
630.41
614.576
599.468
585.041
571.253
558.068
545.451
533.374
521.812
510.744
500.153
490.028
480.362
471.151
462.402
454.126
446.346
439.102
432.477
426.663
422.126
420.01
423.316
437.309
459.208
470.703
464.92
460.376
455.847
450.871
445.883
442.436
439.837
437.652
435.926
434.498
433.258
432.193
431.253
430.42
429.683
429.031
428.46
427.972
427.573
427.274
969.268
934.541
902.034
871.548
842.907
815.956
790.553
766.573
743.905
722.448
702.109
682.807
664.467
647.022
630.41
614.576
599.468
585.041
571.253
558.068
545.451
533.374
521.812
510.744
500.154
490.029
480.363
471.154
462.407
454.134
446.358
439.123
432.518
426.747
422.31
420.447
424.374
439.354
461.127
470.921
465.362
460.181
455.568
450.746
445.866
442.393
439.838
437.691
435.971
434.555
433.321
432.258
431.319
430.484
429.742
429.083
428.503
428.001
427.584
427.264
969.268
934.541
902.034
871.548
842.907
815.956
790.553
766.573
743.905
722.448
702.109
682.807
664.467
647.022
630.41
614.576
599.468
585.041
571.253
558.068
545.451
533.374
521.812
510.744
500.154
490.03
480.364
471.156
462.41
454.14
446.369
439.142
432.553
426.82
422.474
420.836
425.311
441.107
462.67
471.002
465.665
460.154
455.32
450.596
445.853
442.367
439.84
437.726
436.011
434.603
433.376
432.315
431.377
430.542
429.797
429.133
428.546
428.035
427.606
427.27
969.268
934.541
902.034
871.548
842.907
815.956
790.553
766.573
743.905
722.448
702.109
682.807
664.467
647.022
630.41
614.576
599.468
585.041
571.253
558.068
545.451
533.374
521.812
510.745
500.154
490.03
480.365
471.158
462.413
454.145
446.378
439.158
432.583
426.882
422.612
421.165
426.098
442.537
463.867
471.035
465.763
460.265
455.128
450.461
445.842
442.353
439.842
437.754
436.045
434.644
433.422
432.362
431.426
430.589
429.843
429.175
428.583
428.066
427.629
427.281
969.268
934.541
902.034
871.548
842.907
815.956
790.553
766.573
743.905
722.448
702.109
682.807
664.467
647.022
630.41
614.576
599.468
585.041
571.253
558.068
545.451
533.374
521.812
510.745
500.155
490.031
480.366
471.159
462.416
454.149
446.384
439.17
432.606
426.93
422.719
421.422
426.71
443.623
464.745
471.039
465.805
460.374
454.992
450.355
445.833
442.346
439.844
437.776
436.072
434.675
433.457
432.399
431.464
430.628
429.88
429.209
428.612
428.09
427.645
427.291
969.268
934.541
902.034
871.548
842.907
815.956
790.553
766.573
743.905
722.448
702.109
682.807
664.467
647.022
630.41
614.576
599.468
585.041
571.253
558.068
545.451
533.374
521.813
510.745
500.155
490.031
480.366
471.16
462.417
454.152
446.389
439.178
432.622
426.963
422.792
421.598
427.129
444.354
465.318
471.029
465.83
460.442
454.905
450.28
445.823
442.342
439.845
437.79
436.089
434.696
433.481
432.424
431.491
430.655
429.906
429.234
428.634
428.107
427.655
427.298
969.268
934.541
902.034
871.548
842.907
815.956
790.553
766.573
743.905
722.448
702.109
682.807
664.467
647.022
630.41
614.576
599.468
585.041
571.253
558.068
545.451
533.374
521.813
510.745
500.155
490.031
480.367
471.16
462.418
454.153
446.391
439.182
432.63
426.98
422.829
421.687
427.338
444.71
465.591
471.023
465.843
460.472
454.867
450.245
445.817
442.339
439.845
437.796
436.097
434.706
433.492
432.436
431.504
430.668
429.92
429.247
428.647
428.118
427.661
427.302
969.268
934.541
902.034
871.548
842.907
815.956
790.553
766.573
743.905
722.448
702.109
682.807
664.467
647.022
630.41
614.576
599.468
585.041
571.253
558.068
545.451
533.374
521.813
510.745
500.155
490.031
480.367
471.16
462.418
454.153
446.391
439.182
432.63
426.98
422.829
421.687
427.338
444.71
465.591
471.023
465.843
460.472
454.867
450.245
445.817
442.339
439.845
437.796
436.097
434.706
433.493
432.437
431.504
430.668
429.92
429.248
428.647
428.118
427.662
427.303
969.268
934.541
902.034
871.548
842.907
815.956
790.553
766.573
743.905
722.448
702.109
682.807
664.467
647.022
630.41
614.576
599.468
585.041
571.253
558.068
545.451
533.374
521.813
510.745
500.155
490.031
480.366
471.16
462.417
454.152
446.389
439.178
432.622
426.963
422.792
421.598
427.129
444.354
465.318
471.029
465.83
460.443
454.905
450.28
445.823
442.342
439.846
437.791
436.09
434.697
433.482
432.426
431.492
430.656
429.908
429.236
428.636
428.109
427.657
427.299
969.268
934.541
902.034
871.548
842.907
815.956
790.553
766.573
743.905
722.448
702.109
682.807
664.467
647.022
630.41
614.576
599.468
585.041
571.253
558.068
545.451
533.374
521.812
510.745
500.155
490.031
480.366
471.159
462.416
454.149
446.384
439.17
432.606
426.93
422.719
421.422
426.71
443.623
464.745
471.04
465.805
460.375
454.993
450.356
445.833
442.347
439.845
437.777
436.073
434.677
433.459
432.402
431.467
430.63
429.882
429.212
428.615
428.093
427.648
427.293
969.268
934.541
902.034
871.548
842.907
815.956
790.553
766.573
743.905
722.448
702.109
682.807
664.467
647.022
630.41
614.576
599.468
585.041
571.253
558.068
545.451
533.374
521.812
510.745
500.154
490.03
480.365
471.158
462.413
454.145
446.378
439.158
432.583
426.882
422.612
421.165
426.098
442.537
463.868
471.036
465.763
460.266
455.128
450.462
445.843
442.354
439.843
437.756
436.047
434.647
433.425
432.365
431.429
430.593
429.846
429.179
428.587
428.07
427.632
427.285
969.268
934.541
902.034
871.548
842.907
815.956
790.553
766.573
743.905
722.448
702.109
682.807
664.467
647.022
630.41
614.576
599.468
585.041
571.253
558.068
545.451
533.374
521.812
510.744
500.154
490.03
480.364
471.156
462.41
454.14
446.369
439.142
432.553
426.82
422.474
420.836
425.311
441.107
462.67
471.003
465.666
460.155
455.321
450.597
445.854
442.369
439.841
437.728
436.014
434.606
433.379
432.318
431.381
430.546
429.802
429.138
428.55
428.039
427.61
427.274
969.268
934.541
902.034
871.548
842.907
815.956
790.553
766.573
743.905
722.448
702.109
682.807
664.467
647.022
630.41
614.576
599.468
585.041
571.253
558.068
545.451
533.374
521.812
510.744
500.154
490.029
480.363
471.154
462.407
454.134
446.358
439.123
432.518
426.747
422.31
420.447
424.374
439.354
461.127
470.922
465.363
460.182
455.569
450.747
445.867
442.395
439.84
437.694
435.974
434.558
433.324
432.262
431.323
430.488
429.747
429.088
428.507
428.006
427.589
427.268
969.268
934.541
902.034
871.548
842.907
815.956
790.553
766.573
743.905
722.448
702.109
682.807
664.467
647.022
630.41
614.576
599.468
585.041
571.253
558.068
545.451
533.374
521.812
510.744
500.153
490.028
480.362
471.151
462.402
454.126
446.346
439.102
432.477
426.663
422.125
420.01
423.315
437.308
459.208
470.704
464.921
460.377
455.849
450.872
445.884
442.437
439.839
437.655
435.929
434.501
433.261
432.197
431.257
430.425
429.688
429.035
428.465
427.977
427.578
427.279
969.268
934.541
902.034
871.548
842.907
815.956
790.553
766.573
743.905
722.448
702.109
682.807
664.467
647.022
630.41
614.576
599.468
585.041
571.253
558.068
545.451
533.374
521.812
510.744
500.153
490.027
480.36
471.149
462.398
454.118
446.332
439.078
432.432
426.572
421.924
419.537
422.167
435.013
456.881
470.048
464.81
460.623
456.032
450.964
445.917
442.502
439.836
437.613
435.881
434.438
433.192
432.127
431.187
430.358
429.627
428.985
428.43
427.963
427.595
427.334
969.268
934.541
902.034
871.548
842.907
815.956
790.553
766.573
743.905
722.448
702.109
682.807
664.467
647.022
630.41
614.576
599.468
585.041
571.253
558.068
545.451
533.374
521.812
510.743
500.152
490.026
480.358
471.146
462.393
454.11
446.317
439.052
432.384
426.475
421.713
419.044
420.963
432.519
454.122
468.961
464.965
460.808
456.189
451.033
445.982
442.593
439.833
437.571
435.833
434.372
433.121
432.055
431.118
430.297
429.579
428.954
428.424
427.994
427.673
427.474
969.268
934.541
902.034
871.548
842.907
815.956
790.553
766.573
743.905
722.448
702.109
682.807
664.467
647.022
630.41
614.576
599.468
585.041
571.253
558.068
545.451
533.374
521.812
510.743
500.152
490.025
480.357
471.143
462.387
454.101
446.301
439.024
432.334
426.374
421.496
418.542
419.736
429.888
450.919
467.464
465.15
461.001
456.344
451.074
446.105
442.712
439.828
437.537
435.788
434.306
433.052
431.988
431.056
430.248
429.55
428.956
428.471
428.104
427.863
427.779
969.268
934.541
902.034
871.548
842.907
815.956
790.553
766.573
743.905
722.448
702.109
682.807
664.467
647.022
630.41
614.576
599.468
585.041
571.253
558.068
545.451
533.374
521.811
510.743
500.151
490.024
480.355
471.14
462.382
454.091
446.285
438.996
432.283
426.273
421.277
418.042
418.518
427.187
447.281
465.479
465.354
461.178
456.494
451.067
446.325
442.852
439.824
437.518
435.75
434.244
432.993
431.932
431.012
430.228
429.567
429.03
428.631
428.382
428.329
428.291
969.268
934.541
902.034
871.548
842.907
815.956
790.553
766.573
743.905
722.448
702.109
682.807
664.467
647.022
630.41
614.576
599.468
585.041
571.253
558.068
545.451
533.374
521.811
510.743
500.151
490.023
480.353
471.136
462.376
454.081
446.269
438.967
432.231
426.172
421.061
417.552
417.333
424.49
443.247
462.936
465.547
461.277
456.669
450.997
446.68
442.995
439.829
437.523
435.721
434.194
432.948
431.897
431.002
430.262
429.672
429.259
429.074
428.963
428.93
429.035
969.268
934.541
902.034
871.548
842.907
815.956
790.553
766.573
743.905
722.448
702.109
682.807
664.467
647.022
630.41
614.576
599.468
585.041
571.253
558.067
545.451
533.374
521.811
510.742
500.15
490.022
480.351
471.133
462.371
454.072
446.252
438.939
432.18
426.074
420.852
417.086
416.21
421.85
438.883
459.776
465.711
461.163
456.47
451.341
447.155
443.116
439.86
437.556
435.703
434.162
432.93
431.898
431.052
430.406
429.992
429.842
429.713
429.662
429.734
430.008
969.268
934.541
902.034
871.548
842.907
815.956
790.553
766.573
743.905
722.448
702.109
682.807
664.467
647.022
630.41
614.576
599.468
585.041
571.253
558.067
545.451
533.373
521.811
510.742
500.15
490.022
480.349
471.13
462.365
454.062
446.235
438.91
432.13
425.979
420.656
416.647
415.161
419.336
434.311
455.945
465.648
460.837
456.104
451.942
447.649
443.202
439.94
437.619
435.699
434.159
432.951
431.966
431.235
430.831
430.601
430.475
430.416
430.473
430.81
431.406
969.268
934.541
902.034
871.548
842.907
815.956
790.553
766.573
743.905
722.448
702.109
682.807
664.467
647.022
630.41
614.576
599.468
585.041
571.253
558.067
545.451
533.373
521.811
510.742
500.149
490.021
480.348
471.127
462.36
454.053
446.219
438.883
432.081
425.889
420.471
416.24
414.2
417.003
429.707
451.414
464.786
460.21
456.509
452.467
447.991
443.283
440.097
437.706
435.719
434.205
433.043
432.176
431.728
431.442
431.231
431.174
431.224
431.483
432.248
433.5
969.268
934.541
902.034
871.548
842.907
815.956
790.553
766.573
743.905
722.448
702.109
682.807
664.467
647.022
630.41
614.576
599.468
585.041
571.253
558.067
545.45
533.373
521.811
510.741
500.149
490.02
480.346
471.124
462.354
454.044
446.204
438.856
432.035
425.804
420.301
415.868
413.335
414.89
425.245
446.199
462.568
460.505
456.887
452.793
448.142
443.446
440.34
437.81
435.784
434.328
433.271
432.698
432.339
432.061
431.946
431.973
432.17
432.834
434.221
436.495
969.268
934.541
902.034
871.548
842.907
815.956
790.553
766.573
743.905
722.448
702.109
682.807
664.467
647.022
630.41
614.576
599.468
585.041
571.253
558.067
545.45
533.373
521.811
510.741
500.148
490.019
480.345
471.121
462.35
454.035
446.189
438.831
431.991
425.724
420.145
415.531
412.565
413.017
421.069
440.417
459.367
460.858
457.177
453.051
448.197
443.8
440.65
437.933
435.931
434.579
433.769
433.312
432.994
432.792
432.731
432.872
433.45
434.615
437.077
440.09
969.268
934.541
902.034
871.548
842.907
815.956
790.553
766.573
743.905
722.448
702.109
682.807
664.467
647.022
630.41
614.576
599.468
585.041
571.253
558.067
545.45
533.373
521.81
510.741
500.148
490.018
480.343
471.119
462.345
454.027
446.175
438.807
431.95
425.651
420.004
415.233
411.893
411.391
417.271
434.284
455.101
461.133
457.194
453.169
448.33
444.428
440.97
438.106
436.21
435.026
434.448
434.007
433.697
433.535
433.626
433.979
435.107
437.302
440.352
443.351
969.268
934.541
902.034
871.548
842.907
815.956
790.553
766.573
743.905
722.448
702.109
682.807
664.467
647.022
630.41
614.576
599.468
585.041
571.253
558.067
545.45
533.373
521.81
510.741
500.148
490.018
480.342
471.117
462.341
454.02
446.163
438.785
431.912
425.583
419.878
414.972
411.311
410
413.928
428.113
449.784
461.035
456.583
452.793
449.152
445.199
441.246
438.402
436.661
435.692
435.13
434.705
434.455
434.447
434.706
435.485
437.182
440.32
443.726
445.343
969.268
934.541
902.034
871.548
842.907
815.956
790.553
766.573
743.905
722.448
702.109
682.807
664.467
647.022
630.41
614.576
599.468
585.041
571.253
558.067
545.45
533.373
521.81
510.741
500.148
490.017
480.341
471.115
462.338
454.014
446.152
438.765
431.878
425.523
419.766
414.746
410.812
408.828
411.068
422.271
443.466
458.994
456.422
453.253
449.73
445.765
441.534
438.905
437.279
436.456
435.918
435.538
435.361
435.45
435.985
437.34
439.96
443.377
445.736
445.74
969.268
934.541
902.034
871.548
842.907
815.956
790.553
766.573
743.905
722.448
702.109
682.807
664.467
647.022
630.41
614.576
599.468
585.041
571.253
558.068
545.451
533.373
521.811
510.741
500.148
490.018
480.341
471.115
462.336
454.01
446.143
438.75
431.849
425.471
419.669
414.553
410.39
407.857
408.693
417.013
436.388
455.269
456.962
453.774
450.201
446.048
442.065
439.626
437.987
437.3
436.797
436.466
436.375
436.638
437.543
439.586
442.717
445.675
446.165
446.003
969.268
934.541
902.034
871.548
842.907
815.956
790.553
766.573
743.905
722.448
702.109
682.807
664.467
647.022
630.41
614.576
599.468
585.041
571.253
558.068
545.451
533.374
521.812
510.743
500.15
490.02
480.344
471.116
462.337
454.009
446.139
438.74
431.827
425.429
419.59
414.394
410.047
407.065
406.761
412.478
428.983
450.109
457.434
453.979
450.434
446.467
443.041
440.468
438.844
438.21
437.789
437.583
437.604
438.058
439.351
441.785
445.067
446.395
446.265
445.855
969.268
934.541
902.034
871.548
842.907
815.956
790.553
766.573
743.905
722.448
702.109
682.807
664.467
647.022
630.411
614.576
599.468
585.042
571.254
558.069
545.453
533.376
521.814
510.746
500.154
490.025
480.35
471.124
462.345
454.017
446.145
438.741
431.82
425.405
419.534
414.274
409.778
406.436
405.228
408.73
421.811
443.544
457.091
453.465
450.602
447.517
444.293
441.303
439.869
439.305
438.958
438.827
438.942
439.553
441.149
444.098
446.329
446.252
446.102
445.7
969.268
934.541
902.034
871.548
842.907
815.956
790.553
766.573
743.905
722.448
702.109
682.807
664.468
647.023
630.411
614.577
599.469
585.043
571.256
558.071
545.456
533.381
521.82
510.754
500.164
490.037
480.365
471.142
462.366
454.04
446.169
438.764
431.838
425.411
419.516
414.204
409.592
405.964
404.054
405.768
415.43
435.826
453.811
454.217
451.523
448.579
445.321
442.302
441.186
440.677
440.375
440.266
440.463
441.257
443.055
445.687
446.464
446.374
446.056
445.475
969.268
934.541
902.034
871.548
842.907
815.956
790.553
766.573
743.905
722.448
702.109
682.807
664.468
647.023
630.412
614.578
599.471
585.045
571.26
558.077
545.463
533.391
521.834
510.771
500.186
490.065
480.398
471.182
462.413
454.093
446.229
438.828
431.903
425.472
419.56
414.212
409.512
405.668
403.22
403.545
410.126
427.59
448.825
455.502
452.545
449.551
446.434
443.926
442.885
442.319
441.986
441.923
442.232
443.117
444.877
446.578
446.464
446.314
445.94
445.251
969.268
934.541
902.034
871.548
842.907
815.956
790.553
766.573
743.905
722.448
702.109
682.808
664.468
647.024
630.413
614.58
599.474
585.051
571.267
558.087
545.478
533.411
521.86
510.806
500.23
490.119
480.465
471.262
462.508
454.203
446.354
438.967
432.053
425.628
419.713
414.344
409.584
405.583
402.729
402.01
406.034
419.712
442.114
456.166
453.258
450.823
448.405
446.263
444.941
444.346
444.017
443.926
444.227
445.159
446.485
447.008
446.828
446.545
445.912
445
969.268
934.541
902.034
871.548
842.907
815.956
790.553
766.573
743.906
722.448
702.11
682.808
664.469
647.026
630.416
614.584
599.481
585.061
571.282
558.108
545.506
533.449
521.91
510.87
500.312
490.221
480.59
471.412
462.685
454.409
446.589
439.231
432.345
425.943
420.043
414.674
409.883
405.778
402.63
401.151
403.199
413.082
434.069
453.602
455.56
453.34
451.084
448.792
447.573
447.043