/*--------------------------------*- C++ -*----------------------------------*\
  =========                 |
  \\      /  F ield         | OpenFOAM: The Open Source CFD Toolbox
   \\    /   O peration     | Website:  https://openfoam.org
    \\  /    A nd           | Version:  9
     \\/     M anipulation  |
\*---------------------------------------------------------------------------*/
FoamFile
{
    format      ascii;
    class       volScalarField;
    location    "0.006";
    object      nut;
}
// * * * * * * * * * * * * * * * * * * * * * * * * * * * * * * * * * * * * * //

dimensions      [0 2 -1 0 0 0 0];

internalField   nonuniform List<scalar> 
36400
(
0.337301
0.33581
0.334383
0.333016
0.331704
0.330443
0.32923
0.328062
0.326937
0.325852
0.324806
0.323796
0.322822
0.321883
0.32098
0.320113
0.319284
0.318494
0.317744
0.317038
0.316377
0.315762
0.315194
0.314674
0.314201
0.313774
0.31339
0.313046
0.312739
0.312465
0.312221
0.312002
0.311806
0.311628
0.311465
0.311316
0.31118
0.311061
0.310967
0.310921
0.310978
0.311291
0.312222
0.314752
0.321609
0.337973
0.36195
0.377896
0.384409
0.389843
0.393569
0.395413
0.396715
0.397585
0.397929
0.397504
0.390712
0.385569
0.381622
0.351593
0.337301
0.33581
0.334383
0.333016
0.331704
0.330443
0.32923
0.328062
0.326937
0.325852
0.324805
0.323795
0.32282
0.321881
0.320977
0.320108
0.319276
0.318483
0.317729
0.317018
0.31635
0.315728
0.315154
0.314627
0.314147
0.313713
0.313324
0.312978
0.312672
0.312403
0.312167
0.311961
0.311782
0.311626
0.31149
0.311373
0.311273
0.311196
0.311151
0.311166
0.311315
0.311788
0.313046
0.316338
0.324659
0.340311
0.354352
0.35778
0.358997
0.360032
0.361102
0.362705
0.36433
0.36593
0.367347
0.368509
0.369106
0.369092
0.367384
0.359115
0.337301
0.33581
0.334383
0.333016
0.331704
0.330443
0.32923
0.328062
0.326937
0.325852
0.324804
0.323793
0.322818
0.321877
0.32097
0.320098
0.319262
0.318463
0.317702
0.316981
0.316303
0.315669
0.31508
0.314539
0.314046
0.3136
0.313202
0.312851
0.312544
0.31228
0.312057
0.311871
0.311721
0.311602
0.311511
0.311447
0.31141
0.311404
0.311443
0.311564
0.311864
0.312603
0.314427
0.319048
0.329478
0.344083
0.352646
0.353545
0.35394
0.353916
0.353345
0.352859
0.352578
0.352408
0.352414
0.352496
0.352597
0.352606
0.35236
0.351077
0.337301
0.33581
0.334383
0.333016
0.331704
0.330443
0.32923
0.328062
0.326937
0.325851
0.324803
0.323792
0.322815
0.321872
0.320962
0.320087
0.319245
0.318438
0.317667
0.316935
0.316243
0.315592
0.314986
0.314427
0.313915
0.313452
0.313039
0.312677
0.312366
0.312105
0.311892
0.311728
0.311608
0.31153
0.311491
0.31149
0.311527
0.311608
0.311751
0.312007
0.312518
0.313642
0.316327
0.322813
0.335093
0.347242
0.351137
0.35141
0.351688
0.351766
0.351485
0.350812
0.349963
0.349209
0.348488
0.347858
0.347311
0.346803
0.346344
0.345951
0.337301
0.33581
0.334383
0.333016
0.331704
0.330443
0.32923
0.328062
0.326936
0.32585
0.324802
0.32379
0.322812
0.321867
0.320954
0.320074
0.319227
0.318412
0.317632
0.316887
0.31618
0.315512
0.314887
0.314306
0.313773
0.313289
0.312857
0.31248
0.312159
0.311894
0.311687
0.311537
0.311441
0.311399
0.311407
0.311465
0.311573
0.311741
0.311993
0.312403
0.313175
0.314826
0.318722
0.327357
0.34007
0.348466
0.349425
0.349747
0.349928
0.349999
0.349984
0.349768
0.349286
0.348691
0.347908
0.347087
0.346296
0.34564
0.345004
0.344513
0.337301
0.33581
0.334383
0.333016
0.331704
0.330443
0.32923
0.328062
0.326936
0.32585
0.324801
0.323788
0.322809
0.321862
0.320948
0.320064
0.319211
0.31839
0.3176
0.316844
0.316123
0.315439
0.314795
0.314194
0.313639
0.313133
0.312681
0.312285
0.311949
0.311675
0.311465
0.31132
0.311239
0.31122
0.311263
0.311367
0.311535
0.311779
0.312137
0.312715
0.313806
0.31617
0.321645
0.332205
0.343546
0.347811
0.347943
0.348098
0.348251
0.348388
0.348455
0.348456
0.34836
0.348127
0.347725
0.347225
0.346543
0.345899
0.345146
0.344571
0.337301
0.33581
0.334383
0.333016
0.331704
0.330443
0.32923
0.328062
0.326936
0.325849
0.3248
0.323787
0.322807
0.321859
0.320942
0.320056
0.319199
0.318372
0.317575
0.31681
0.316077
0.31538
0.31472
0.314101
0.313526
0.313
0.312528
0.312114
0.311761
0.311474
0.311256
0.311108
0.311031
0.311024
0.311088
0.311223
0.311436
0.311744
0.312202
0.312969
0.314463
0.317779
0.325094
0.336666
0.345466
0.346465
0.346642
0.346703
0.346791
0.346946
0.347089
0.347216
0.347285
0.347272
0.347187
0.347023
0.346762
0.346337
0.345697
0.344977
0.337301
0.33581
0.334383
0.333016
0.331704
0.330443
0.32923
0.328062
0.326936
0.325849
0.3248
0.323786
0.322805
0.321857
0.320938
0.32005
0.31919
0.318359
0.317557
0.316785
0.316044
0.315336
0.314664
0.314031
0.313441
0.312899
0.312409
0.311978
0.31161
0.311309
0.31108
0.310925
0.310846
0.310843
0.310918
0.311073
0.311318
0.311681
0.312244
0.313236
0.315257
0.319808
0.328967
0.340128
0.345423
0.345349
0.345387
0.345397
0.345507
0.345728
0.345919
0.346109
0.346315
0.346541
0.346689
0.346677
0.346608
0.346428
0.34605
0.345452
0.337301
0.33581
0.334383
0.333016
0.331704
0.330443
0.32923
0.328062
0.326936
0.325849
0.3248
0.323785
0.322804
0.321855
0.320936
0.320046
0.319184
0.318351
0.317545
0.316769
0.316022
0.315307
0.314626
0.313983
0.313382
0.312828
0.312326
0.311882
0.311501
0.311188
0.310949
0.310786
0.310702
0.310699
0.310779
0.310948
0.311221
0.311639
0.312322
0.313597
0.316316
0.322366
0.332935
0.34245
0.344451
0.344601
0.344535
0.344284
0.344352
0.344597
0.344822
0.345122
0.345443
0.345849
0.346322
0.346388
0.346415
0.346362
0.346166
0.345787
0.337301
0.33581
0.334383
0.333016
0.331704
0.330443
0.32923
0.328062
0.326935
0.325849
0.324799
0.323785
0.322804
0.321854
0.320934
0.320044
0.319181
0.318346
0.317538
0.316759
0.316008
0.315289
0.314603
0.313953
0.313345
0.312783
0.312272
0.311819
0.311429
0.311108
0.31086
0.310691
0.310603
0.3106
0.310684
0.310866
0.311167
0.311648
0.312484
0.314128
0.317759
0.325467
0.336548
0.343741
0.343779
0.343806
0.34365
0.343447
0.343462
0.343667
0.343897
0.34416
0.34454
0.345157
0.345907
0.346279
0.346343
0.346346
0.346186
0.345889
0.337301
0.33581
0.334383
0.333016
0.331704
0.330443
0.32923
0.328062
0.326935
0.325849
0.324799
0.323785
0.322804
0.321854
0.320934
0.320042
0.319179
0.318343
0.317534
0.316753
0.316001
0.315279
0.314589
0.313936
0.313324
0.312757
0.312241
0.311782
0.311386
0.311059
0.310807
0.310634
0.310544
0.310541
0.310632
0.310829
0.311163
0.311724
0.312754
0.314886
0.319668
0.328972
0.339466
0.343599
0.343635
0.343416
0.342941
0.342566
0.342689
0.342897
0.343117
0.343387
0.343767
0.344362
0.345302
0.346182
0.346268
0.346329
0.346282
0.346084
0.337301
0.33581
0.334383
0.333016
0.331704
0.330443
0.32923
0.328062
0.326935
0.325849
0.324799
0.323785
0.322803
0.321853
0.320933
0.320042
0.319178
0.318342
0.317532
0.31675
0.315997
0.315273
0.314582
0.313927
0.313312
0.312743
0.312224
0.311762
0.311363
0.311033
0.310778
0.310603
0.310514
0.310514
0.310614
0.310829
0.311206
0.311869
0.313151
0.31592
0.322057
0.332544
0.341606
0.343177
0.343297
0.343085
0.342543
0.341937
0.342013
0.342238
0.342466
0.342711
0.343038
0.343591
0.344553
0.345843
0.3463
0.346389
0.346369
0.346221
0.337301
0.33581
0.334383
0.333016
0.331704
0.330443
0.32923
0.328062
0.326935
0.325849
0.324799
0.323785
0.322803
0.321853
0.320933
0.320042
0.319178
0.318341
0.317531
0.316749
0.315995
0.315271
0.314579
0.313923
0.313307
0.312736
0.312215
0.311751
0.311351
0.31102
0.310764
0.31059
0.310503
0.310509
0.31062
0.310859
0.311291
0.312086
0.313692
0.317268
0.324878
0.335843
0.343021
0.342963
0.342986
0.342696
0.342153
0.341555
0.341483
0.341677
0.34188
0.34211
0.342398
0.342869
0.343748
0.345181
0.346265
0.346355
0.346407
0.346338
0.337301
0.33581
0.334383
0.333016
0.331704
0.330443
0.32923
0.328062
0.326935
0.325849
0.324799
0.323785
0.322803
0.321853
0.320933
0.320041
0.319178
0.318341
0.317531
0.316748
0.315994
0.315269
0.314577
0.313921
0.313304
0.312732
0.312211
0.311747
0.311346
0.311015
0.31076
0.310587
0.310503
0.310517
0.310642
0.310912
0.311411
0.312373
0.314394
0.318956
0.328004
0.338628
0.343227
0.343259
0.342989
0.342308
0.341664
0.341233
0.341075
0.341231
0.341397
0.34159
0.341833
0.342232
0.342974
0.344198
0.345747
0.346429
0.346493
0.346422
0.337301
0.33581
0.334383
0.333016
0.331704
0.330443
0.32923
0.328062
0.326935
0.325849
0.324799
0.323785
0.322803
0.321853
0.320933
0.320041
0.319177
0.318341
0.317531
0.316748
0.315994
0.315269
0.314577
0.31392
0.313303
0.312731
0.31221
0.311745
0.311345
0.311014
0.31076
0.31059
0.310511
0.310534
0.310676
0.310982
0.311566
0.312734
0.315273
0.320977
0.331193
0.340814
0.343118
0.343243
0.342951
0.342188
0.341295
0.340907
0.340737
0.340866
0.340991
0.341126
0.341317
0.341628
0.342198
0.343251
0.344754
0.346142
0.346461
0.346503
0.337301
0.33581
0.334383
0.333016
0.331704
0.330443
0.32923
0.328062
0.326935
0.325849
0.324799
0.323785
0.322803
0.321853
0.320933
0.320041
0.319177
0.318341
0.317531
0.316748
0.315993
0.315269
0.314576
0.31392
0.313303
0.312731
0.312209
0.311745
0.311345
0.311015
0.310763
0.310596
0.310523
0.310556
0.310719
0.311068
0.311757
0.313177
0.316348
0.323297
0.334213
0.342404
0.342985
0.343095
0.342812
0.342119
0.341117
0.340635
0.340463
0.34053
0.340635
0.340745
0.340895
0.341126
0.341529
0.342279
0.34357
0.345179
0.346296
0.346406
0.337301
0.33581
0.334383
0.333016
0.331704
0.330443
0.32923
0.328062
0.326935
0.325849
0.324799
0.323785
0.322803
0.321853
0.320933
0.320041
0.319177
0.318341
0.317531
0.316748
0.315993
0.315269
0.314576
0.31392
0.313303
0.312731
0.31221
0.311746
0.311346
0.311017
0.310768
0.310604
0.310538
0.310582
0.310768
0.31117
0.311984
0.313711
0.317634
0.325847
0.336891
0.343302
0.343142
0.342975
0.342627
0.341926
0.341039
0.340459
0.340227
0.340228
0.340319
0.340406
0.340521
0.340707
0.340986
0.341478
0.342367
0.343871
0.345455
0.346251
0.337301
0.33581
0.334383
0.333016
0.331704
0.330443
0.32923
0.328062
0.326935
0.325849
0.324799
0.323785
0.322803
0.321853
0.320933
0.320041
0.319177
0.318341
0.317531
0.316748
0.315993
0.315269
0.314576
0.31392
0.313303
0.312731
0.31221
0.311747
0.311348
0.31102
0.310773
0.310614
0.310554
0.310612
0.310825
0.311288
0.312249
0.314343
0.319126
0.328512
0.339138
0.343415
0.343469
0.343205
0.34234
0.341648
0.340964
0.340371
0.340065
0.339968
0.34005
0.340127
0.340214
0.340329
0.34053
0.340831
0.341465
0.342562
0.344015
0.345419
0.337301
0.33581
0.334383
0.333016
0.331704
0.330443
0.32923
0.328062
0.326935
0.325849
0.324799
0.323785
0.322803
0.321853
0.320933
0.320041
0.319177
0.318341
0.317531
0.316748
0.315993
0.315269
0.314576
0.31392
0.313303
0.312731
0.312211
0.311747
0.311349
0.311024
0.310779
0.310624
0.310572
0.310644
0.310888
0.311422
0.312554
0.315078
0.320806
0.331136
0.340942
0.343385
0.343531
0.343216
0.342343
0.341431
0.340868
0.340335
0.339978
0.339802
0.339782
0.339849
0.33993
0.340026
0.340158
0.340362
0.34075
0.341393
0.342596
0.344028
0.337301
0.33581
0.334383
0.333016
0.331704
0.330443
0.32923
0.328062
0.326935
0.325849
0.324799
0.323785
0.322803
0.321853
0.320933
0.320041
0.319177
0.318341
0.317531
0.316748
0.315993
0.315269
0.314576
0.31392
0.313303
0.312732
0.312211
0.311749
0.311351
0.311027
0.310785
0.310635
0.310591
0.31068
0.310958
0.311574
0.312903
0.31592
0.322639
0.333591
0.342305
0.343322
0.343477
0.343165
0.342371
0.341329
0.340776
0.340318
0.339948
0.339722
0.339591
0.339607
0.339668
0.339728
0.339835
0.339986
0.340203
0.34062
0.341352
0.342472
0.337301
0.33581
0.334383
0.333016
0.331704
0.330443
0.32923
0.328062
0.326935
0.325849
0.324799
0.323785
0.322803
0.321853
0.320933
0.320041
0.319177
0.318341
0.317531
0.316748
0.315993
0.315269
0.314576
0.31392
0.313303
0.312732
0.312212
0.31175
0.311353
0.311031
0.310792
0.310646
0.310612
0.310717
0.311034
0.311742
0.313294
0.316866
0.324579
0.335794
0.343265
0.34328
0.343384
0.343084
0.342355
0.341306
0.340712
0.340309
0.339953
0.339698
0.339517
0.339403
0.339425
0.33948
0.339543
0.339655
0.339805
0.34004
0.340494
0.341165
0.337301
0.33581
0.334383
0.333016
0.331704
0.330443
0.32923
0.328062
0.326935
0.325849
0.324799
0.323785
0.322803
0.321853
0.320933
0.320041
0.319177
0.318341
0.317531
0.316748
0.315993
0.315269
0.314576
0.31392
0.313303
0.312732
0.312212
0.311751
0.311356
0.311035
0.310798
0.310658
0.310633
0.310757
0.311117
0.311926
0.313727
0.317903
0.326565
0.337702
0.343673
0.343612
0.34328
0.342916
0.342254
0.341313
0.340683
0.340305
0.339975
0.339707
0.339503
0.339334
0.33923
0.339235
0.339288
0.339369
0.339469
0.339612
0.339875
0.340251
0.337301
0.33581
0.334383
0.333016
0.331704
0.330443
0.32923
0.328062
0.326935
0.325849
0.324799
0.323785
0.322803
0.321853
0.320933
0.320041
0.319177
0.318341
0.317531
0.316748
0.315993
0.315269
0.314577
0.31392
0.313304
0.312733
0.312213
0.311752
0.311358
0.311039
0.310805
0.31067
0.310655
0.310799
0.311205
0.312123
0.314199
0.319014
0.328521
0.339313
0.343762
0.343806
0.343493
0.342715
0.342087
0.341315
0.340685
0.34031
0.340006
0.339735
0.339519
0.339328
0.339171
0.339068
0.339041
0.339112
0.339179
0.339274
0.339418
0.339647
0.337301
0.33581
0.334383
0.333016
0.331704
0.330443
0.32923
0.328062
0.326935
0.325849
0.324799
0.323785
0.322803
0.321853
0.320933
0.320041
0.319177
0.318341
0.317531
0.316748
0.315993
0.315269
0.314577
0.31392
0.313304
0.312733
0.312214
0.311754
0.31136
0.311043
0.310812
0.310683
0.310677
0.310843
0.311298
0.312333
0.314703
0.320174
0.330377
0.340644
0.34376
0.34391
0.343626
0.34262
0.341927
0.341298
0.340705
0.340326
0.340041
0.339775
0.339551
0.33935
0.339171
0.339025
0.338919
0.338875
0.338918
0.338985
0.339082
0.339234
0.337301
0.33581
0.334383
0.333016
0.331704
0.330443
0.32923
0.328062
0.326935
0.325849
0.324799
0.323785
0.322803
0.321853
0.320933
0.320041
0.319177
0.318341
0.317531
0.316748
0.315993
0.315269
0.314577
0.31392
0.313304
0.312733
0.312215
0.311755
0.311363
0.311047
0.310819
0.310695
0.3107
0.310888
0.311394
0.312553
0.315232
0.321352
0.332084
0.341719
0.343744
0.343922
0.343599
0.342693
0.341815
0.34127
0.340733
0.340352
0.340079
0.339821
0.339593
0.339387
0.339196
0.33903
0.338892
0.338792
0.338741
0.338748
0.338836
0.338923
0.337301
0.33581
0.334383
0.333016
0.331704
0.330443
0.32923
0.328062
0.326935
0.325849
0.324799
0.323785
0.322803
0.321853
0.320933
0.320041
0.319177
0.318341
0.317531
0.316748
0.315993
0.315269
0.314577
0.31392
0.313304
0.312734
0.312215
0.311756
0.311365
0.311051
0.310826
0.310707
0.310722
0.310933
0.311492
0.312777
0.315775
0.322525
0.333617
0.342564
0.343719
0.343896
0.343578
0.342733
0.341758
0.34124
0.340762
0.340385
0.340119
0.33987
0.33964
0.339432
0.339235
0.339058
0.338904
0.338778
0.338688
0.338643
0.338648
0.338715
0.337301
0.33581
0.334383
0.333016
0.331704
0.330443
0.32923
0.328062
0.326935
0.325849
0.324799
0.323785
0.322803
0.321853
0.320933
0.320041
0.319177
0.318341
0.317531
0.316748
0.315994
0.315269
0.314577
0.31392
0.313304
0.312734
0.312216
0.311757
0.311367
0.311055
0.310833
0.310719
0.310744
0.310977
0.311589
0.313002
0.316319
0.323662
0.334962
0.343208
0.343697
0.343861
0.343552
0.34275
0.341737
0.341216
0.340789
0.340423
0.34016
0.339919
0.339689
0.33948
0.33928
0.339097
0.338934
0.338795
0.338685
0.338612
0.338581
0.338598
0.337301
0.33581
0.334383
0.333016
0.331704
0.330443
0.32923
0.328062
0.326935
0.325849
0.324799
0.323785
0.322803
0.321853
0.320933
0.320041
0.319177
0.318341
0.317531
0.316748
0.315994
0.315269
0.314577
0.313921
0.313305
0.312735
0.312217
0.311759
0.311369
0.311058
0.310839
0.31073
0.310765
0.31102
0.311683
0.313223
0.316852
0.324734
0.336119
0.343683
0.343681
0.343824
0.34352
0.34275
0.341738
0.341202
0.340812
0.340462
0.3402
0.339965
0.339738
0.339528
0.339327
0.33914
0.338972
0.338824
0.338704
0.338615
0.338563
0.338552
0.337301
0.33581
0.334383
0.333016
0.331704
0.330443
0.32923
0.328062
0.326935
0.325849
0.324799
0.323785
0.322803
0.321853
0.320933
0.320041
0.319177
0.318341
0.317531
0.316748
0.315994
0.315269
0.314577
0.313921
0.313305
0.312735
0.312217
0.31176
0.311371
0.311062
0.310845
0.310741
0.310785
0.31106
0.311773
0.313434
0.317358
0.325717
0.337094
0.34398
0.343768
0.343758
0.343474
0.342737
0.341749
0.341197
0.340833
0.340498
0.340238
0.340009
0.339783
0.339573
0.339372
0.339184
0.339013
0.338861
0.338734
0.338635
0.338571
0.338543
0.337301
0.33581
0.334383
0.333016
0.331704
0.330443
0.32923
0.328062
0.326935
0.325849
0.324799
0.323785
0.322803
0.321853
0.320933
0.320041
0.319177
0.318341
0.317531
0.316748
0.315994
0.315269
0.314577
0.313921
0.313305
0.312735
0.312218
0.311761
0.311373
0.311065
0.31085
0.31075
0.310803
0.311097
0.311855
0.313629
0.317824
0.32659
0.337897
0.344097
0.343983
0.34371
0.343384
0.342707
0.341762
0.341197
0.34085
0.340531
0.340272
0.340047
0.339824
0.339614
0.339414
0.339224
0.339051
0.338897
0.338766
0.338662
0.338589
0.338552
0.337301
0.33581
0.334383
0.333016
0.331704
0.330443
0.32923
0.328062
0.326935
0.325849
0.324799
0.323785
0.322803
0.321853
0.320933
0.320041
0.319177
0.318341
0.317531
0.316748
0.315994
0.315269
0.314577
0.313921
0.313305
0.312735
0.312218
0.311762
0.311374
0.311067
0.310855
0.310758
0.310818
0.31113
0.311928
0.313803
0.318235
0.327336
0.338543
0.344156
0.344134
0.343726
0.343303
0.342663
0.341774
0.341202
0.340865
0.340558
0.340301
0.34008
0.339859
0.33965
0.33945
0.33926
0.339086
0.33893
0.338796
0.338688
0.338611
0.338567
0.337301
0.33581
0.334383
0.333016
0.331704
0.330443
0.32923
0.328062
0.326935
0.325849
0.324799
0.323785
0.322803
0.321853
0.320933
0.320041
0.319177
0.318341
0.317531
0.316748
0.315994
0.315269
0.314577
0.313921
0.313305
0.312736
0.312219
0.311762
0.311376
0.31107
0.310859
0.310765
0.310831
0.311157
0.311989
0.313949
0.318579
0.327942
0.339044
0.344192
0.344195
0.343792
0.343241
0.342621
0.341783
0.341209
0.340877
0.340581
0.340326
0.340107
0.339888
0.33968
0.33948
0.33929
0.339115
0.338957
0.338821
0.338711
0.33863
0.338582
0.337301
0.33581
0.334383
0.333016
0.331704
0.330443
0.32923
0.328062
0.326935
0.325849
0.324799
0.323785
0.322803
0.321853
0.320933
0.320041
0.319177
0.318341
0.317531
0.316748
0.315994
0.315269
0.314577
0.313921
0.313305
0.312736
0.312219
0.311763
0.311376
0.311071
0.310862
0.31077
0.310841
0.311178
0.312037
0.314063
0.318847
0.328402
0.339411
0.34421
0.344228
0.343853
0.343198
0.342587
0.341789
0.341215
0.340887
0.340599
0.340345
0.340127
0.33991
0.339702
0.339503
0.339313
0.339138
0.338979
0.338841
0.338728
0.338645
0.338593
0.337301
0.33581
0.334383
0.333016
0.331704
0.330443
0.32923
0.328062
0.326935
0.325849
0.324799
0.323785
0.322803
0.321853
0.320933
0.320041
0.319177
0.318341
0.317531
0.316748
0.315994
0.315269
0.314577
0.313921
0.313305
0.312736
0.312219
0.311763
0.311377
0.311072
0.310864
0.310774
0.310848
0.311193
0.31207
0.314142
0.31903
0.328711
0.339651
0.344218
0.344249
0.343891
0.343171
0.342563
0.341792
0.34122
0.340893
0.34061
0.340358
0.340141
0.339925
0.339718
0.339519
0.339329
0.339154
0.338994
0.338855
0.338741
0.338654
0.338601
0.337301
0.33581
0.334383
0.333016
0.331704
0.330443
0.32923
0.328062
0.326935
0.325849
0.324799
0.323785
0.322803
0.321853
0.320933
0.320041
0.319177
0.318341
0.317531
0.316748
0.315994
0.315269
0.314577
0.313921
0.313305
0.312736
0.312219
0.311763
0.311377
0.311073
0.310865
0.310776
0.310852
0.3112
0.312086
0.314181
0.319121
0.328862
0.339765
0.344221
0.34426
0.343909
0.34316
0.342553
0.341793
0.341222
0.340896
0.340615
0.340364
0.340148
0.339932
0.339725
0.339527
0.339337
0.339162
0.339002
0.338863
0.338748
0.338659
0.338606
0.337301
0.33581
0.334383
0.333016
0.331704
0.330443
0.32923
0.328062
0.326935
0.325849
0.324799
0.323785
0.322803
0.321853
0.320933
0.320041
0.319177
0.318341
0.317531
0.316748
0.315994
0.315269
0.314577
0.313921
0.313305
0.312736
0.312219
0.311763
0.311377
0.311073
0.310865
0.310776
0.310852
0.3112
0.312086
0.314181
0.319121
0.328862
0.339765
0.344221
0.34426
0.343909
0.34316
0.342553
0.341793
0.341222
0.340896
0.340615
0.340364
0.340148
0.339932
0.339726
0.339527
0.339338
0.339162
0.339003
0.338863
0.338748
0.338659
0.338606
0.337301
0.33581
0.334383
0.333016
0.331704
0.330443
0.32923
0.328062
0.326935
0.325849
0.324799
0.323785
0.322803
0.321853
0.320933
0.320041
0.319177
0.318341
0.317531
0.316748
0.315994
0.315269
0.314577
0.313921
0.313305
0.312736
0.312219
0.311763
0.311377
0.311072
0.310864
0.310774
0.310848
0.311193
0.31207
0.314142
0.31903
0.328711
0.339651
0.344218
0.344249
0.343891
0.343171
0.342564
0.341793
0.34122
0.340893
0.34061
0.340358
0.340142
0.339926
0.339718
0.33952
0.33933
0.339154
0.338995
0.338856
0.338741
0.338655
0.338602
0.337301
0.33581
0.334383
0.333016
0.331704
0.330443
0.32923
0.328062
0.326935
0.325849
0.324799
0.323785
0.322803
0.321853
0.320933
0.320041
0.319177
0.318341
0.317531
0.316748
0.315994
0.315269
0.314577
0.313921
0.313305
0.312736
0.312219
0.311763
0.311376
0.311071
0.310862
0.31077
0.310841
0.311178
0.312037
0.314063
0.318847
0.328402
0.339411
0.344211
0.344228
0.343853
0.343198
0.342588
0.34179
0.341216
0.340887
0.340599
0.340346
0.340128
0.339911
0.339703
0.339504
0.339314
0.339139
0.33898
0.338842
0.338729
0.338646
0.338594
0.337301
0.33581
0.334383
0.333016
0.331704
0.330443
0.32923
0.328062
0.326935
0.325849
0.324799
0.323785
0.322803
0.321853
0.320933
0.320041
0.319177
0.318341
0.317531
0.316748
0.315994
0.315269
0.314577
0.313921
0.313305
0.312736
0.312219
0.311762
0.311376
0.31107
0.310859
0.310765
0.310831
0.311157
0.311989
0.313949
0.318579
0.327942
0.339044
0.344192
0.344196
0.343793
0.343241
0.342621
0.341784
0.341209
0.340878
0.340582
0.340327
0.340108
0.339889
0.339681
0.339481
0.339291
0.339116
0.338959
0.338823
0.338712
0.338632
0.338583
0.337301
0.33581
0.334383
0.333016
0.331704
0.330443
0.32923
0.328062
0.326935
0.325849
0.324799
0.323785
0.322803
0.321853
0.320933
0.320041
0.319177
0.318341
0.317531
0.316748
0.315994
0.315269
0.314577
0.313921
0.313305
0.312735
0.312218
0.311762
0.311374
0.311067
0.310855
0.310758
0.310818
0.31113
0.311928
0.313803
0.318235
0.327335
0.338543
0.344157
0.344134
0.343726
0.343303
0.342663
0.341775
0.341203
0.340866
0.340559
0.340303
0.340081
0.33986
0.339652
0.339452
0.339262
0.339088
0.338932
0.338798
0.33869
0.338613
0.338569
0.337301
0.33581
0.334383
0.333016
0.331704
0.330443
0.32923
0.328062
0.326935
0.325849
0.324799
0.323785
0.322803
0.321853
0.320933
0.320041
0.319177
0.318341
0.317531
0.316748
0.315994
0.315269
0.314577
0.313921
0.313305
0.312735
0.312218
0.311761
0.311373
0.311065
0.31085
0.31075
0.310803
0.311097
0.311855
0.313629
0.317824
0.32659
0.337897
0.344098
0.343983
0.34371
0.343384
0.342707
0.341763
0.341198
0.340851
0.340531
0.340273
0.340048
0.339825
0.339616
0.339415
0.339226
0.339053
0.338899
0.338768
0.338664
0.338592
0.338554
0.337301
0.33581
0.334383
0.333016
0.331704
0.330443
0.32923
0.328062
0.326935
0.325849
0.324799
0.323785
0.322803
0.321853
0.320933
0.320041
0.319177
0.318341
0.317531
0.316748
0.315994
0.315269
0.314577
0.313921
0.313305
0.312735
0.312217
0.31176
0.311371
0.311062
0.310845
0.310741
0.310785
0.31106
0.311773
0.313434
0.317358
0.325717
0.337094
0.34398
0.343768
0.343759
0.343474
0.342737
0.341749
0.341197
0.340833
0.340499
0.340239
0.34001
0.339784
0.339575
0.339374
0.339186
0.339015
0.338863
0.338736
0.338638
0.338573
0.338545
0.337301
0.33581
0.334383
0.333016
0.331704
0.330443
0.32923
0.328062
0.326935
0.325849
0.324799
0.323785
0.322803
0.321853
0.320933
0.320041
0.319177
0.318341
0.317531
0.316748
0.315994
0.315269
0.314577
0.313921
0.313305
0.312735
0.312217
0.311759
0.311369
0.311058
0.310839
0.31073
0.310765
0.31102
0.311683
0.313223
0.316852
0.324734
0.336119
0.343683
0.343681
0.343825
0.343521
0.34275
0.341738
0.341203
0.340813
0.340462
0.340201
0.339967
0.339739
0.339529
0.339329
0.339142
0.338974
0.338827
0.338706
0.338617
0.338565
0.338554
0.337301
0.33581
0.334383
0.333016
0.331704
0.330443
0.32923
0.328062
0.326935
0.325849
0.324799
0.323785
0.322803
0.321853
0.320933
0.320041
0.319177
0.318341
0.317531
0.316748
0.315994
0.315269
0.314577
0.31392
0.313304
0.312734
0.312216
0.311757
0.311367
0.311055
0.310833
0.310719
0.310744
0.310977
0.311589
0.313002
0.316319
0.323662
0.334962
0.343208
0.343697
0.343861
0.343552
0.34275
0.341738
0.341217
0.340789
0.340424
0.340161
0.33992
0.339691
0.339481
0.339282
0.339099
0.338936
0.338797
0.338687
0.338614
0.338583
0.3386
0.337301
0.33581
0.334383
0.333016
0.331704
0.330443
0.32923
0.328062
0.326935
0.325849
0.324799
0.323785
0.322803
0.321853
0.320933
0.320041
0.319177
0.318341
0.317531
0.316748
0.315993
0.315269
0.314577
0.31392
0.313304
0.312734
0.312215
0.311756
0.311365
0.311051
0.310826
0.310707
0.310722
0.310933
0.311492
0.312777
0.315775
0.322525
0.333617
0.342564
0.34372
0.343897
0.343578
0.342734
0.341758
0.34124
0.340762
0.340386
0.34012
0.339871
0.339641
0.339433
0.339236
0.33906
0.338906
0.33878
0.33869
0.338645
0.338649
0.338717
0.337301
0.33581
0.334383
0.333016
0.331704
0.330443
0.32923
0.328062
0.326935
0.325849
0.324799
0.323785
0.322803
0.321853
0.320933
0.320041
0.319177
0.318341
0.317531
0.316748
0.315993
0.315269
0.314577
0.31392
0.313304
0.312733
0.312215
0.311755
0.311363
0.311047
0.310819
0.310695
0.3107
0.310888
0.311394
0.312553
0.315232
0.321352
0.332084
0.341719
0.343744
0.343922
0.343599
0.342693
0.341815
0.34127
0.340733
0.340352
0.34008
0.339822
0.339594
0.339388
0.339197
0.339031
0.338894
0.338793
0.338742
0.338749
0.338837
0.338924
0.337301
0.33581
0.334383
0.333016
0.331704
0.330443
0.32923
0.328062
0.326935
0.325849
0.324799
0.323785
0.322803
0.321853
0.320933
0.320041
0.319177
0.318341
0.317531
0.316748
0.315993
0.315269
0.314577
0.31392
0.313304
0.312733
0.312214
0.311754
0.31136
0.311043
0.310812
0.310683
0.310677
0.310843
0.311298
0.312333
0.314703
0.320174
0.330377
0.340643
0.34376
0.34391
0.343626
0.34262
0.341927
0.341298
0.340705
0.340326
0.340041
0.339775
0.339552
0.339351
0.339171
0.339025
0.33892
0.338875
0.338919
0.338986
0.339082
0.339234
0.337301
0.33581
0.334383
0.333016
0.331704
0.330443
0.32923
0.328062
0.326935
0.325849
0.324799
0.323785
0.322803
0.321853
0.320933
0.320041
0.319177
0.318341
0.317531
0.316748
0.315993
0.315269
0.314577
0.31392
0.313304
0.312733
0.312213
0.311752
0.311358
0.311039
0.310805
0.31067
0.310655
0.310799
0.311205
0.312123
0.314199
0.319014
0.328521
0.339313
0.343761
0.343806
0.343492
0.342715
0.342087
0.341314
0.340684
0.34031
0.340006
0.339735
0.339519
0.339328
0.339171
0.339068
0.339041
0.339112
0.339179
0.339274
0.339418
0.339647
0.337301
0.33581
0.334383
0.333016
0.331704
0.330443
0.32923
0.328062
0.326935
0.325849
0.324799
0.323785
0.322803
0.321853
0.320933
0.320041
0.319177
0.318341
0.317531
0.316748
0.315993
0.315269
0.314576
0.31392
0.313303
0.312732
0.312212
0.311751
0.311356
0.311035
0.310798
0.310658
0.310633
0.310757
0.311117
0.311926
0.313727
0.317903
0.326564
0.337702
0.343672
0.343611
0.343279
0.342915
0.342254
0.341313
0.340682
0.340304
0.339974
0.339706
0.339502
0.339334
0.339229
0.339234
0.339288
0.339369
0.339468
0.339611
0.339874
0.340251
0.337301
0.33581
0.334383
0.333016
0.331704
0.330443
0.32923
0.328062
0.326935
0.325849
0.324799
0.323785
0.322803
0.321853
0.320933
0.320041
0.319177
0.318341
0.317531
0.316748
0.315993
0.315269
0.314576
0.31392
0.313303
0.312732
0.312212
0.31175
0.311353
0.311031
0.310792
0.310646
0.310612
0.310717
0.311034
0.311742
0.313294
0.316865
0.324578
0.335793
0.343265
0.343279
0.343383
0.343083
0.342354
0.341305
0.340711
0.340308
0.339952
0.339697
0.339516
0.339402
0.339424
0.339479
0.339542
0.339654
0.339803
0.340039
0.340493
0.341164
0.337301
0.33581
0.334383
0.333016
0.331704
0.330443
0.32923
0.328062
0.326935
0.325849
0.324799
0.323785
0.322803
0.321853
0.320933
0.320041
0.319177
0.318341
0.317531
0.316748
0.315993
0.315269
0.314576
0.31392
0.313303
0.312731
0.312211
0.311749
0.311351
0.311027
0.310785
0.310635
0.310591
0.31068
0.310958
0.311574
0.312903
0.31592
0.322638
0.33359
0.342304
0.343321
0.343476
0.343164
0.34237
0.341328
0.340775
0.340317
0.339947
0.339721
0.33959
0.339606
0.339666
0.339727
0.339833
0.339985
0.340202
0.340619
0.34135
0.342471
0.337301
0.33581
0.334383
0.333016
0.331704
0.330443
0.32923
0.328062
0.326935
0.325849
0.324799
0.323785
0.322803
0.321853
0.320933
0.320041
0.319177
0.318341
0.317531
0.316748
0.315993
0.315269
0.314576
0.31392
0.313303
0.312731
0.312211
0.311747
0.311349
0.311024
0.310779
0.310624
0.310572
0.310644
0.310888
0.311422
0.312554
0.315078
0.320806
0.331135
0.34094
0.343383
0.34353
0.343214
0.342342
0.341429
0.340867
0.340333
0.339977
0.339801
0.339781
0.339848
0.339928
0.340024
0.340157
0.340361
0.340748
0.341391
0.342594
0.344026
0.337301
0.33581
0.334383
0.333016
0.331704
0.330443
0.32923
0.328062
0.326935
0.325849
0.324799
0.323785
0.322803
0.321853
0.320933
0.320041
0.319177
0.318341
0.317531
0.316748
0.315993
0.315269
0.314576
0.31392
0.313303
0.312731
0.31221
0.311747
0.311348
0.31102
0.310773
0.310614
0.310554
0.310612
0.310825
0.311288
0.312249
0.314342
0.319126
0.328511
0.339136
0.343413
0.343467
0.343204
0.342339
0.341646
0.340963
0.34037
0.340064
0.339967
0.340048
0.340125
0.340212
0.340327
0.340529
0.340829
0.341463
0.34256
0.344013
0.345416
0.337301
0.33581
0.334383
0.333016
0.331704
0.330443
0.32923
0.328062
0.326935
0.325849
0.324799
0.323785
0.322803
0.321853
0.320933
0.320041
0.319177
0.318341
0.317531
0.316748
0.315993
0.315269
0.314576
0.31392
0.313303
0.312731
0.31221
0.311746
0.311346
0.311017
0.310768
0.310605
0.310538
0.310582
0.310768
0.31117
0.311984
0.313711
0.317634
0.325846
0.336889
0.3433
0.34314
0.342974
0.342625
0.341924
0.341038
0.340457
0.340226
0.340227
0.340318
0.340404
0.34052
0.340705
0.340984
0.341476
0.342365
0.343869
0.345451
0.346248
0.337301
0.33581
0.334383
0.333016
0.331704
0.330443
0.32923
0.328062
0.326935
0.325849
0.324799
0.323785
0.322803
0.321853
0.320933
0.320041
0.319177
0.318341
0.317531
0.316748
0.315993
0.315269
0.314576
0.31392
0.313303
0.312731
0.312209
0.311745
0.311345
0.311015
0.310763
0.310596
0.310523
0.310556
0.310719
0.311068
0.311757
0.313177
0.316348
0.323296
0.334211
0.342402
0.342983
0.343093
0.34281
0.342117
0.341115
0.340633
0.340461
0.340528
0.340633
0.340743
0.340893
0.341125
0.341527
0.342278
0.343568
0.345176