/*--------------------------------*- C++ -*----------------------------------*\
  =========                 |
  \\      /  F ield         | OpenFOAM: The Open Source CFD Toolbox
   \\    /   O peration     | Website:  https://openfoam.org
    \\  /    A nd           | Version:  9
     \\/     M anipulation  |
\*---------------------------------------------------------------------------*/
FoamFile
{
    format      ascii;
    class       volScalarField;
    location    "0.006";
    object      p;
}
// * * * * * * * * * * * * * * * * * * * * * * * * * * * * * * * * * * * * * //

dimensions      [1 -1 -2 0 0 0 0];

internalField   nonuniform List<scalar> 
36400
(
2
2
2
2
2
2
2
2
2
2
2
2
2
2
2
2
2
2
2
2
2
2
2
2
2
2
2
2
2.00001
2.00001
2.00002
2.00004
2.00008
2.00015
2.00029
2.00054
2.001
2.00182
2.00326
2.00576
2.01019
2.01879
2.03601
2.07056
2.14002
2.27943
2.51418
2.73469
2.71858
2.68263
2.64914
2.59297
2.5593
2.53894
2.52133
2.50462
2.48307
2.46711
2.45137
2.44059
2
2
2
2
2
2
2
2
2
2
2
2
2
2
2
2
2
2
2
2
2
2
2
2
2
2
2
2
2.00001
2.00001
2.00003
2.00005
2.0001
2.00019
2.00036
2.00067
2.00122
2.00221
2.00393
2.00692
2.01235
2.02316
2.04481
2.08829
2.17569
2.34563
2.58408
2.68613
2.67458
2.64645
2.61162
2.57868
2.55068
2.53131
2.51529
2.50036
2.48449
2.46944
2.45248
2.44167
2
2
2
2
2
2
2
2
2
2
2
2
2
2
2
2
2
2
2
2
2
2
2
2
2
2
2
2.00001
2.00001
2.00002
2.00003
2.00007
2.00013
2.00024
2.00045
2.00083
2.00151
2.00271
2.00478
2.00844
2.01522
2.0288
2.05605
2.11068
2.22001
2.40405
2.59895
2.63099
2.62708
2.61694
2.59396
2.5718
2.54912
2.52893
2.51268
2.4982
2.48356
2.46871
2.45181
2.4391
2
2
2
2
2
2
2
2
2
2
2
2
2
2
2
2
2
2
2
2
2
2
2
2
2
2
2
2.00001
2.00001
2.00002
2.00004
2.00009
2.00016
2.00031
2.00057
2.00105
2.00189
2.00336
2.00592
2.01048
2.01921
2.03668
2.07168
2.14184
2.27699
2.46679
2.58699
2.5848
2.58343
2.58031
2.5732
2.55924
2.54192
2.52531
2.50894
2.49439
2.48048
2.46646
2.44997
2.4355
2
2
2
2
2
2
2
2
2
2
2
2
2
2
2
2
2
2
2
2
2
2
2
2
2
2
2.00001
2.00001
2.00002
2.00003
2.00006
2.00011
2.00021
2.00039
2.00073
2.00132
2.00237
2.00418
2.00737
2.01315
2.02448
2.04717
2.0926
2.18339
2.33663
2.51167
2.55087
2.54955
2.54776
2.54543
2.54354
2.53996
2.53255
2.52442
2.51066
2.4949
2.47976
2.46585
2.44937
2.43418
2
2
2
2
2
2
2
2
2
2
2
2
2
2
2
2
2
2
2
2
2
2
2
2
2
2
2.00001
2.00001
2.00002
2.00004
2.00008
2.00014
2.00027
2.0005
2.00092
2.00166
2.00296
2.00521
2.00919
2.0166
2.03137
2.06095
2.12014
2.23445
2.39582
2.51686
2.51813
2.51772
2.51683
2.51658
2.51553
2.51429
2.51274
2.51002
2.50477
2.49753
2.48479
2.47116
2.4506
2.43341
2
2
2
2
2
2
2
2
2
2
2
2
2
2
2
2
2
2
2
2
2
2
2
2
2
2
2.00001
2.00001
2.00003
2.00005
2.0001
2.00018
2.00034
2.00064
2.00116
2.00208
2.00367
2.00646
2.01147
2.02107
2.04028
2.07872
2.15556
2.28982
2.4539
2.49716
2.49575
2.49303
2.49049
2.49046
2.49072
2.49116
2.49107
2.49074
2.4899
2.48843
2.48486
2.4765
2.4592
2.43627
2
2
2
2
2
2
2
2
2
2
2
2
2
2
2
2
2
2
2
2
2
2
2
2
2
2.00001
2.00001
2.00002
2.00003
2.00007
2.00012
2.00023
2.00044
2.0008
2.00145
2.00257
2.00453
2.00799
2.01432
2.02676
2.05167
2.10153
2.19911
2.34523
2.47763
2.47654
2.47475
2.47048
2.46643
2.46671
2.467
2.46773
2.46952
2.47315
2.47825
2.47806
2.47682
2.47286
2.46257
2.44317
2
2
2
2
2
2
2
2
2
2
2
2
2
2
2
2
2
2
2
2
2
2
2
2
2
2.00001
2.00001
2.00002
2.00004
2.00008
2.00016
2.00029
2.00055
2.001
2.00179
2.00316
2.00556
2.00984
2.01786
2.0339
2.06599
2.13012
2.24846
2.40046
2.46846
2.46664
2.46123
2.44837
2.44199
2.442
2.44249
2.44543
2.44912
2.45517
2.46656
2.46891
2.46849
2.46641
2.46025
2.44659
2
2
2
2
2
2
2
2
2
2
2
2
2
2
2
2
2
2
2
2
2
2
2
2
2.00001
2.00001
2.00002
2.00003
2.00006
2.0001
2.0002
2.00037
2.00068
2.00123
2.00219
2.00385
2.00678
2.01208
2.02232
2.0428
2.0838
2.1651
2.29926
2.44839
2.45594
2.45244
2.44408
2.4304
2.42015
2.41988
2.42038
2.42208
2.42698
2.4372
2.4521
2.46293
2.4627
2.46119
2.45544
2.44465
2
2
2
2
2
2
2
2
2
2
2
2
2
2
2
2
2
2
2
2
2
2
2
2
2.00001
2.00001
2.00002
2.00004
2.00007
2.00013
2.00024
2.00045
2.00083
2.00149
2.00265
2.00466
2.00821
2.01478
2.02777
2.05375
2.10573
2.20627
2.35018
2.45882
2.45526
2.44483
2.42708
2.40741
2.39949
2.39963
2.40029
2.4024
2.40709
2.41597
2.43357
2.45451
2.45644
2.45566
2.45265
2.44489
2
2
2
2
2
2
2
2
2
2
2
2
2
2
2
2
2
2
2
2
2
2
2
2
2.00001
2.00001
2.00002
2.00004
2.00008
2.00016
2.0003
2.00055
2.00101
2.0018
2.00318
2.00559
2.0099
2.01805
2.03436
2.06701
2.13221
2.25116
2.40001
2.45241
2.44853
2.43778
2.4144
2.38752
2.38024
2.38054
2.38193
2.38387
2.38766
2.3958
2.41239
2.43869
2.45221
2.45161
2.44907
2.44289
2
2
2
2
2
2
2
2
2
2
2
2
2
2
2
2
2
2
2
2
2
2
2
2.00001
2.00001
2.00002
2.00003
2.00006
2.0001
2.0002
2.00036
2.00067
2.00121
2.00215
2.00379
2.00666
2.01189
2.02203
2.04231
2.08292
2.1635
2.29685
2.44345
2.44509
2.43968
2.42633
2.40148
2.37255
2.36301
2.36299
2.36434
2.36653
2.36997
2.3768
2.3909
2.41781
2.44431
2.4453
2.4443
2.44089
2
2
2
2
2
2
2
2
2
2
2
2
2
2
2
2
2
2
2
2
2
2
2
2.00001
2.00001
2.00002
2.00004
2.00007
2.00013
2.00024
2.00044
2.0008
2.00144
2.00255
2.00447
2.00789
2.01422
2.02672
2.05174
2.10182
2.19934
2.34238
2.45599
2.45119
2.43736
2.41246
2.3842
2.35989
2.34804
2.34797
2.34883
2.35066
2.3536
2.35961
2.37216
2.39152
2.4238
2.44178
2.44125
2.43799
2
2
2
2
2
2
2
2
2
2
2
2
2
2
2
2
2
2
2
2
2
2
2
2.00001
2.00001
2.00002
2.00004
2.00008
2.00015
2.00028
2.00052
2.00094
2.00169
2.00299
2.00525
2.00929
2.01692
2.0322
2.06276
2.12389
2.23807
2.387
2.45463
2.44941
2.43485
2.40379
2.36865
2.34761
2.33534
2.33485
2.33507
2.33588
2.3381
2.34277
2.3522
2.36958
2.39585
2.42713
2.43617
2.43569
2
2
2
2
2
2
2
2
2
2
2
2
2
2
2
2
2
2
2
2
2
2
2.00001
2.00001
2.00002
2.00003
2.00005
2.0001
2.00018
2.00033
2.00061
2.00111
2.00197
2.00347
2.00611
2.01088
2.0201
2.03855
2.07547
2.14919
2.27771
2.42731
2.4487
2.44326
2.42865
2.39749
2.35771
2.3365
2.32498
2.3225
2.32264
2.32318
2.32481
2.32814
2.33486
2.34732
2.36868
2.39794
2.42572
2.4297
2
2
2
2
2
2
2
2
2
2
2
2
2
2
2
2
2
2
2
2
2
2
2.00001
2.00001
2.00002
2.00003
2.00006
2.00011
2.00021
2.00039
2.00071
2.00128
2.00228
2.00401
2.00706
2.01268
2.02372
2.04583
2.09008
2.17753
2.31686
2.45554
2.44869
2.43697
2.42018
2.38831
2.35035
2.32771
2.31598
2.31129
2.31136
2.31155
2.31265
2.3153
2.31961
2.32775
2.34211
2.3675
2.39965
2.42182
2
2
2
2
2
2
2
2
2
2
2
2
2
2
2
2
2
2
2
2
2
2
2.00001
2.00001
2.00002
2.00004
2.00007
2.00013
2.00025
2.00045
2.00082
2.00148
2.00261
2.00459
2.00811
2.01469
2.0278
2.05403
2.10652
2.20832
2.35525
2.4617
2.45548
2.43981
2.40766
2.37638
2.34429
2.32146
2.30881
2.30193
2.30141
2.30153
2.30204
2.30328
2.30629
2.31092
2.32181
2.34033
2.36414
2.39684
2
2
2
2
2
2
2
2
2
2
2
2
2
2
2
2
2
2
2
2
2
2
2.00001
2.00001
2.00002
2.00004
2.00008
2.00015
2.00028
2.00052
2.00094
2.00168
2.00297
2.00522
2.00926
2.01695
2.03232
2.06313
2.12478
2.24031
2.39188
2.46119
2.45521
2.43828
2.40225
2.36556
2.33838
2.31704
2.30354
2.29542
2.29169
2.29168
2.29219
2.29309
2.29474
2.29773
2.30408
2.31428
2.33464
2.36325
2
2
2
2
2
2
2
2
2
2
2
2
2
2
2
2
2
2
2
2
2
2.00001
2.00001
2.00002
2.00003
2.00005
2.00009
2.00017
2.00032
2.00059
2.00107
2.0019
2.00335
2.00589
2.01051
2.01945
2.03733
2.07314
2.14466
2.27228
2.4245
2.45761
2.4516
2.43466
2.39878
2.35766
2.33275
2.31363
2.29984
2.29094
2.28476
2.28285
2.2829
2.28305
2.2843
2.28639
2.28944
2.29614
2.30785
2.33016
2
2
2
2
2
2
2
2
2
2
2
2
2
2
2
2
2
2
2
2
2
2.00001
2.00001
2.00002
2.00003
2.00006
2.00011
2.0002
2.00037
2.00067
2.0012
2.00213
2.00375
2.0066
2.01185
2.02214
2.04274
2.084
2.16601
2.30335
2.45145
2.45315
2.44669
2.4298
2.3948
2.35233
2.32783
2.31072
2.29725
2.28786
2.28077
2.27569
2.27426
2.27431
2.27457
2.27594
2.27782
2.28114
2.28846
2.30187
2
2
2
2
2
2
2
2
2
2
2
2
2
2
2
2
2
2
2
2
2
2.00001
2.00001
2.00002
2.00003
2.00006
2.00012
2.00022
2.00041
2.00075
2.00134
2.00237
2.00416
2.00735
2.01327
2.02502
2.04852
2.09559
2.18841
2.333
2.46553
2.45894
2.44103
2.42216
2.38891
2.34859
2.32393
2.30815
2.29537
2.28571
2.27821
2.27198
2.26755
2.26581
2.26584
2.26652
2.26742
2.26902
2.27289
2.28019
2
2
2
2
2
2
2
2
2
2
2
2
2
2
2
2
2
2
2
2
2
2.00001
2.00001
2.00002
2.00004
2.00007
2.00013
2.00025
2.00046
2.00083
2.00148
2.00261
2.00459
2.00812
2.01476
2.02804
2.05461
2.1078
2.21121
2.36116
2.46986
2.4627
2.44396
2.41289
2.38125
2.34548
2.32102
2.30593
2.29393
2.28421
2.2765
2.26976
2.26418
2.25995
2.25753
2.25785
2.25805
2.25869
2.26018
2.26404
2
2
2
2
2
2
2
2
2
2
2
2
2
2
2
2
2
2
2
2
2
2.00001
2.00001
2.00002
2.00004
2.00008
2.00015
2.00027
2.0005
2.00091
2.00162
2.00286
2.00502
2.00891
2.01633
2.03116
2.06089
2.12042
2.23371
2.38721
2.47043
2.46396
2.44607
2.40599
2.37361
2.34243
2.31889
2.30408
2.29277
2.28314
2.27531
2.26835
2.26222
2.25703
2.25285
2.25007
2.24941
2.24944
2.25002
2.25167
2
2
2
2
2
2
2
2
2
2
2
2
2
2
2
2
2
2
2
2
2.00001
2.00001
2.00001
2.00003
2.00005
2.00009
2.00016
2.0003
2.00055
2.00099
2.00176
2.0031
2.00545
2.00971
2.01793
2.03438
2.06731
2.13317
2.2553
2.41052
2.4694
2.46274
2.44394
2.40419
2.36709
2.33937
2.31727
2.30261
2.29181
2.28237
2.27447
2.26742
2.261
2.25534
2.25039
2.24634
2.24337
2.24162
2.24185
2.24185
2
2
2
2
2
2
2
2
2
2
2
2
2
2
2
2
2
2
2
2
2.00001
2.00001
2.00002
2.00003
2.00005
2.00009
2.00018
2.00033
2.0006
2.00107
2.0019
2.00335
2.00588
2.01051
2.01953
2.03758
2.07372
2.14595
2.2756
2.43071
2.46725
2.46048
2.44176
2.4023
2.36207
2.33642
2.31595
2.30147
2.29103
2.28182
2.27389
2.2668
2.26024
2.25431
2.24896
2.24429
2.24039
2.23742
2.23543
2.23472
2
2
2
2
2
2
2
2
2
2
2
2
2
2
2
2
2
2
2
2
2.00001
2.00001
2.00002
2.00003
2.00006
2.0001
2.00019
2.00035
2.00064
2.00115
2.00204
2.00358
2.00629
2.01129
2.02109
2.04071
2.08001
2.15844
2.29429
2.44758
2.46465
2.45791
2.43932
2.40021
2.35836
2.33375
2.31481
2.30061
2.29038
2.28141
2.27349
2.2664
2.25976
2.25368
2.24812
2.24311
2.23872
2.23505
2.23218
2.23018
2
2
2
2
2
2
2
2
2
2
2
2
2
2
2
2
2
2
2
2
2.00001
2.00001
2.00002
2.00003
2.00006
2.00011
2.0002
2.00037
2.00068
2.00122
2.00216
2.0038
2.00669
2.01204
2.0226
2.04373
2.08607
2.17034
2.31116
2.46108
2.46215
2.45533
2.4367
2.39806
2.35563
2.33146
2.31379
2.29994
2.28986
2.2811
2.27322
2.26614
2.25947
2.25331
2.24761
2.2424
2.23774
2.23366
2.23026
2.22754
2
2
2
2
2
2
2
2
2
2
2
2
2
2
2
2
2
2
2
2
2.00001
2.00001
2.00002
2.00003
2.00006
2.00012
2.00022
2.0004
2.00072
2.00129
2.00228
2.004
2.00705
2.01273
2.02401
2.04657
2.09176
2.18137
2.32607
2.47038
2.4625
2.45208
2.43373
2.39581
2.35361
2.32957
2.31289
2.29943
2.28945
2.28087
2.27304
2.26598
2.25931
2.25311
2.24735
2.24203
2.2372
2.23288
2.22913
2.22598
2
2
2
2
2
2
2
2
2
2
2
2
2
2
2
2
2
2
2
2
2.00001
2.00001
2.00002
2.00004
2.00007
2.00012
2.00023
2.00042
2.00075
2.00135
2.00238
2.00418
2.00738
2.01337
2.02529
2.04915
2.09693
2.1913
2.33896
2.47471
2.46693
2.44928
2.42965
2.39339
2.35208
2.32808
2.31211
2.29903
2.28913
2.2807
2.27292
2.26588
2.25924
2.25301
2.2472
2.24181
2.23687
2.23241
2.22844
2.22503
2
2
2
2
2
2
2
2
2
2
2
2
2
2
2
2
2
2
2
2
2.00001
2.00001
2.00002
2.00004
2.00007
2.00013
2.00024
2.00043
2.00079
2.0014
2.00247
2.00434
2.00767
2.01392
2.02641
2.05141
2.10147
2.19989
2.34979
2.47714
2.47021
2.44832
2.42594
2.39085
2.3509
2.32692
2.31146
2.29871
2.28888
2.28057
2.27285
2.26583
2.25921
2.25297
2.24713
2.24169
2.23668
2.23211
2.22801
2.22441
2
2
2
2
2
2
2
2
2
2
2
2
2
2
2
2
2
2
2
2
2.00001
2.00001
2.00002
2.00004
2.00007
2.00013
2.00024
2.00045
2.00081
2.00144
2.00255
2.00447
2.00791
2.01438
2.02735
2.0533
2.10526
2.20697
2.35851
2.47869
2.4713
2.44907
2.42292
2.3886
2.34999
2.32607
2.31094
2.29848
2.2887
2.28048
2.27281
2.26581
2.2592
2.25295
2.24709
2.24162
2.23655
2.23192
2.22773
2.22398
2
2
2
2
2
2
2
2
2
2
2
2
2
2
2
2
2
2
2
2
2.00001
2.00001
2.00002
2.00004
2.00007
2.00014
2.00025
2.00046
2.00083
2.00148
2.0026
2.00457
2.00809
2.01474
2.02807
2.05476
2.10819
2.21238
2.36507
2.47957
2.47172
2.44997
2.42068
2.38683
2.34932
2.32546
2.31055
2.2983
2.28857
2.28041
2.27279
2.26581
2.25921
2.25297
2.2471
2.24159
2.23648
2.23178
2.22752
2.22366
2
2
2
2
2
2
2
2
2
2
2
2
2
2
2
2
2
2
2
2
2.00001
2.00001
2.00002
2.00004
2.00007
2.00014
2.00025
2.00047
2.00084
2.0015
2.00264
2.00464
2.00821
2.01499
2.02856
2.05575
2.11019
2.21606
2.36947
2.48002
2.472
2.45059
2.41922
2.38561
2.34886
2.32506
2.31028
2.29818
2.28849
2.28037
2.27277
2.26581
2.25923
2.25299
2.24713
2.2416
2.23646
2.23172
2.22738
2.22345
2
2
2
2
2
2
2
2
2
2
2
2
2
2
2
2
2
2
2
2
2.00001
2.00001
2.00002
2.00004
2.00007
2.00014
2.00026
2.00047
2.00085
2.00151
2.00266
2.00467
2.00828
2.01512
2.02881
2.05625
2.11119
2.21786
2.37158
2.48022
2.47215
2.45087
2.41856
2.38504
2.34863
2.32488
2.31015
2.29812
2.28845
2.28035
2.27277
2.26581
2.25924
2.25301
2.24714
2.24162
2.23646
2.2317
2.22731
2.22336
2
2
2
2
2
2
2
2
2
2
2
2
2
2
2
2
2
2
2
2
2.00001
2.00001
2.00002
2.00004
2.00007
2.00014
2.00026
2.00047
2.00085
2.00151
2.00266
2.00467
2.00828
2.01512
2.02881
2.05625
2.11119
2.21786
2.37158
2.48022
2.47215
2.45087
2.41856
2.38504
2.34863
2.32487
2.31015
2.29812
2.28845
2.28035
2.27277
2.26581
2.25924
2.25301
2.24714
2.24162
2.23647
2.2317
2.22731
2.22336
2
2
2
2
2
2
2
2
2
2
2
2
2
2
2
2
2
2
2
2
2.00001
2.00001
2.00002
2.00004
2.00007
2.00014
2.00025
2.00047
2.00084
2.0015
2.00264
2.00464
2.00821
2.01499
2.02856
2.05575
2.11019
2.21606
2.36947
2.48002
2.472
2.45059
2.41922
2.38561
2.34886
2.32506
2.31028
2.29818
2.28849
2.28037
2.27277
2.26581
2.25923
2.253
2.24713
2.24161
2.23647
2.23172
2.22738
2.22346
2
2
2
2
2
2
2
2
2
2
2
2
2
2
2
2
2
2
2
2
2.00001
2.00001
2.00002
2.00004
2.00007
2.00014
2.00025
2.00046
2.00083
2.00148
2.0026
2.00457
2.00809
2.01474
2.02807
2.05476
2.10819
2.21238
2.36507
2.47957
2.47172
2.44998
2.42068
2.38683
2.34931
2.32545
2.31054
2.2983
2.28857
2.28041
2.27279
2.26581
2.25922
2.25297
2.24711
2.2416
2.23648
2.23179
2.22752
2.22367
2
2
2
2
2
2
2
2
2
2
2
2
2
2
2
2
2
2
2
2
2.00001
2.00001
2.00002
2.00004
2.00007
2.00013
2.00024
2.00045
2.00081
2.00144
2.00255
2.00447
2.00791
2.01438
2.02735
2.0533
2.10526
2.20696
2.35851
2.47869
2.4713
2.44907
2.42292
2.38859
2.34998
2.32606
2.31093
2.29847
2.2887
2.28047
2.27281
2.26582
2.2592
2.25296
2.2471
2.24162
2.23656
2.23192
2.22773
2.22398
2
2
2
2
2
2
2
2
2
2
2
2
2
2
2
2
2
2
2
2
2.00001
2.00001
2.00002
2.00004
2.00007
2.00013
2.00024
2.00043
2.00079
2.0014
2.00247
2.00434
2.00767
2.01392
2.02641
2.05141
2.10147
2.19989
2.34979
2.47714
2.47021
2.44832
2.42594
2.39084
2.35089
2.32691
2.31145
2.29871
2.28888
2.28057
2.27285
2.26584
2.25921
2.25297
2.24714
2.2417
2.23669
2.23212
2.22802
2.22441
2
2
2
2
2
2
2
2
2
2
2
2
2
2
2
2
2
2
2
2
2.00001
2.00001
2.00002
2.00004
2.00007
2.00012
2.00023
2.00042
2.00075
2.00135
2.00238
2.00418
2.00738
2.01337
2.02529
2.04915
2.09693
2.1913
2.33896
2.47471
2.46693
2.44928
2.42965
2.39338
2.35207
2.32806
2.3121
2.29902
2.28912
2.28069
2.27292
2.26588
2.25924
2.25301
2.24721
2.24181
2.23688
2.23241
2.22845
2.22504
2
2
2
2
2
2
2
2
2
2
2
2
2
2
2
2
2
2
2
2
2.00001
2.00001
2.00002
2.00003
2.00006
2.00012
2.00022
2.0004
2.00072
2.00129
2.00228
2.004
2.00705
2.01273
2.02401
2.04657
2.09175
2.18137
2.32606
2.47038
2.4625
2.45208
2.43373
2.3958
2.35359
2.32956
2.31288
2.29942
2.28945
2.28087
2.27304
2.26598
2.25932
2.25312
2.24736
2.24204
2.23721
2.23289
2.22914
2.22599
2
2
2
2
2
2
2
2
2
2
2
2
2
2
2
2
2
2
2
2
2.00001
2.00001
2.00002
2.00003
2.00006
2.00011
2.0002
2.00037
2.00068
2.00122
2.00216
2.0038
2.00669
2.01204
2.02259
2.04373
2.08607
2.17033
2.31116
2.46108
2.46215
2.45533
2.4367
2.39805
2.35562
2.33144
2.31378
2.29993
2.28986
2.2811
2.27322
2.26614
2.25948
2.25331
2.24762
2.24241
2.23775
2.23367
2.23027
2.22755
2
2
2
2
2
2
2
2
2
2
2
2
2
2
2
2
2
2
2
2
2.00001
2.00001
2.00002
2.00003
2.00006
2.0001
2.00019
2.00035
2.00064
2.00115
2.00204
2.00358
2.00629
2.01129
2.02109
2.04071
2.08001
2.15844
2.29429
2.44757
2.46465
2.45791
2.43932
2.4002
2.35834
2.33373
2.3148
2.3006
2.29038
2.2814
2.27349
2.2664
2.25977
2.25369
2.24813
2.24312
2.23873
2.23506
2.23219
2.23019
2
2
2
2
2
2
2
2
2
2
2
2
2
2
2
2
2
2
2
2
2.00001
2.00001
2.00002
2.00003
2.00005
2.00009
2.00018
2.00033
2.0006
2.00107
2.0019
2.00335
2.00588
2.01051
2.01953
2.03758
2.07371
2.14595
2.2756
2.43071
2.46725
2.46048
2.44176
2.40229
2.36206
2.3364
2.31594
2.30146
2.29102
2.28181
2.27389
2.2668
2.26024
2.25432
2.24897
2.2443
2.2404
2.23743
2.23544
2.23473
2
2
2
2
2
2
2
2
2
2
2
2
2
2
2
2
2
2
2
2
2.00001
2.00001
2.00001
2.00003
2.00005
2.00009
2.00016
2.0003
2.00055
2.00099
2.00176
2.00311
2.00545
2.00971
2.01793
2.03438
2.06731
2.13317
2.2553
2.41052
2.4694
2.46274
2.44393
2.40418
2.36708
2.33935
2.31726
2.3026
2.29181
2.28237
2.27447
2.26742
2.26101
2.25535
2.2504
2.24635
2.24338
2.24163
2.24186
2.24186
2
2
2
2
2
2
2
2
2
2
2
2
2
2
2
2
2
2
2
2
2
2.00001
2.00001
2.00002
2.00004
2.00008
2.00015
2.00027
2.0005
2.00091
2.00162
2.00286
2.00502
2.00891
2.01633
2.03116
2.06089
2.12041
2.2337
2.38721
2.47042
2.46396
2.44607
2.40599
2.3736
2.34242
2.31888
2.30407
2.29276
2.28313
2.27531
2.26835
2.26223
2.25704
2.25286
2.25008
2.24942
2.24945
2.25003
2.25168
2
2
2
2
2
2
2
2
2
2
2
2
2
2
2
2
2
2
2
2
2
2.00001
2.00001
2.00002
2.00004
2.00007
2.00013
2.00025
2.00046
2.00083
2.00148
2.00261
2.00459
2.00812
2.01476
2.02804
2.05461
2.10779
2.2112
2.36115
2.46986
2.4627
2.44396
2.41288
2.38124
2.34547
2.32101
2.30592
2.29392
2.2842
2.2765
2.26976
2.26419
2.25995
2.25754
2.25785
2.25806
2.2587
2.26019
2.26405
2
2
2
2
2
2
2
2
2
2
2
2
2
2
2
2
2
2
2
2
2
2.00001
2.00001
2.00002
2.00003
2.00006
2.00012
2.00022
2.00041
2.00075
2.00134
2.00237
2.00416
2.00735
2.01327
2.02501
2.04852
2.09559
2.1884
2.33299
2.46552
2.45893
2.44102
2.42215
2.38891
2.34859
2.32392
2.30815
2.29536
2.28571
2.27821
2.27198
2.26755
2.26581
2.26585
2.26653
2.26742
2.26903
2.2729
2.2802
2
2
2
2
2
2
2
2
2
2
2
2
2
2
2
2
2
2
2
2
2
2.00001
2.00001
2.00002
2.00003
2.00006
2.00011
2.0002
2.00037
2.00067
2.0012
2.00213
2.00375
2.0066
2.01185
2.02214
2.04274
2.08399
2.16601
2.30334
2.45144
2.45314
2.44668
2.42979
2.3948
2.35232
2.32783
2.31072
2.29725
2.28786
2.28077
2.2757
2.27426
2.27432
2.27458
2.27595
2.27782
2.28115
2.28847
2.30188
2
2
2
2
2
2
2
2
2
2
2
2
2
2
2
2
2
2
2
2
2
2.00001
2.00001
2.00001
2.00003
2.00005
2.00009
2.00017
2.00032
2.00059
2.00107
2.0019
2.00335
2.00589
2.01051
2.01945
2.03733
2.07314
2.14465
2.27227
2.42449
2.4576
2.45159
2.43466
2.39877
2.35766
2.33275
2.31363
2.29984
2.29094
2.28477
2.28285
2.2829
2.28305
2.28431
2.2864
2.28945
2.29615
2.30786
2.33018
2
2
2
2
2
2
2
2
2
2
2
2
2
2
2
2
2
2
2
2
2
2
2.00001
2.00001
2.00002
2.00004
2.00008
2.00015
2.00028
2.00052
2.00094
2.00168
2.00297
2.00522
2.00926
2.01694
2.03232
2.06313
2.12478
2.2403
2.39186
2.46118
2.45519
2.43827
2.40225
2.36555
2.33839
2.31705
2.30354
2.29543
2.2917
2.29168
2.29219
2.2931
2.29475
2.29774
2.30409
2.31429
2.33465
2.36326
2
2
2
2
2
2
2
2
2
2
2
2
2
2
2
2
2
2
2
2
2
2
2.00001
2.00001
2.00002
2.00004
2.00007
2.00013
2.00025
2.00045
2.00082
2.00148
2.00261
2.00459
2.00811
2.01469
2.0278
2.05403
2.10652
2.20831
2.35523
2.46168
2.45546
2.4398
2.40765
2.37638
2.34429
2.32147
2.30882
2.30194
2.30142
2.30154
2.30205
2.30329
2.3063
2.31093
2.32183
2.34034
2.36415
2.39684
2
2
2
2
2
2
2
2
2
2
2
2
2
2
2
2
2
2
2
2
2
2
2.00001
2.00001
2.00002
2.00003
2.00006
2.00011
2.00021
2.00039
2.00071
2.00128
2.00228
2.00401
2.00706
2.01268
2.02372
2.04582
2.09007
2.17752
2.31684
2.45552
2.44867
2.43696
2.42017
2.38831
2.35036
2.32772
2.31599
2.31131
2.31137
2.31156
2.31266
2.31532
2.31962
2.32777
2.34213
2.36751
2.39965
2.42181
2
2
2
2
2
2
2
2
2
2
2
2
2
2
2
2
2
2
2
2
2
2
2
2.00001
2.00001
2.00003
2.00005
2.0001
2.00018
2.00033
2.00061
2.00111
2.00197
2.00347
2.00611
2.01088
2.0201
2.03855
2.07547
2.14918
2.27769
2.42728
2.44868
2.44324
2.42864
2.39749
2.35772
2.33652
2.32499
2.32252
2.32266
2.3232
2.32483
2.32816
2.33488
2.34734
2.36869
2.39794
2.4257
2.42966
2
2
2
2
2
2
2
2
2
2
2
2
2
2
2
2
2
2
2
2
2
2
2
2.00001
2.00001
2.00002
2.00004
2.00008
2.00015
2.00028
2.00052
2.00094
2.00169
2.00299
2.00525
2.00929
2.01692
2.03219
2.06276
2.12388
2.23805
2.38698
2.45462
2.4494
2.43484
2.40379
2.36866
2.34763
2.33536
2.33487
2.33509
2.3359
2.33812
2.34279
2.35222
2.3696
2.39586
2.42711
2.43613
2.43565
2
2
2
2
2
2
2
2
2
2
2
2
2
2
2
2
2
2
2
2
2
2
2
2.00001
2.00001
2.00002
2.00004
2.00007
2.00013
2.00024
2.00044
2.0008
2.00144
2.00255
2.00447
2.00789
2.01422
2.02672
2.05174
2.10181
2.19933
2.34236
2.45597
2.45117
2.43734
2.41246
2.38421
2.35991
2.34807
2.34799
2.34885
2.35068
2.35363
2.35964
2.37218
2.39153
2.4238
2.44173
2.4412
2.43795
2
2
2
2
2
2
2
2
2
2
2
2
2
2
2
2
2
2
2
2
2
2
2
2.00001
2.00001
2.00002
2.00003
2.00005
2.0001
2.0002
2.00036
2.00067
2.00121
2.00215
2.00379
2.00666
2.01189
2.02203
2.04231
2.08291
2.16349
2.29683
2.44342
2.44508
2.43967
2.42632
2.40149
2.37257
2.36304
2.36302
2.36437
2.36656
2.37
2.37683
2.39093
2.41783
2.44429
2.44524
2.44425
2.44084
2
2
2
2
2
2
2
2
2
2
2
2
2
2
2
2
2
2
2
2
2
2
2
2
2.00001
2.00001
2.00002
2.00004
2.00008
2.00016
2.0003
2.00055
2.00101
2.0018
2.00318
2.00559
2.0099
2.01805
2.03436
2.067
2.1322
2.25114
2.39998
2.4524
2.44852
2.43778
2.4144
2.38754
2.38027
2.38057
2.38196
2.3839
2.3877
2.39583
2.41242
2.4387
2.45216
2.45156
2.44902
2.44286
2
2
2
2
2
2
2
2
2
2
2
2
2
2
2
2
2
2
2
2
2
2
2
2
2.00001
2.00001
2.00002
2.00004
2.00007
2.00013
2.00024
2.00045
2.00083
2.00149
2.00265
2.00466
2.00821
2.01478
2.02777
2.05375
2.10572
2.20625
2.35015
2.45881
2.45525
2.44482
2.42709
2.40743
2.39953
2.39966
2.40032
2.40243
2.40712
2.41601
2.43359
2.45449
2.45639
2.45562
2.4526
2.44483
2
2
2
2
2
2
2
2
2
2
2
2
2
2
2
2
2
2
2
2
2
2
2
2
2
2.00001
2.00002
2.00003
2.00005
2.0001
2.0002
2.00037
2.00068
2.00122
2.00219
2.00385
2.00678
2.01207
2.02231
2.0428
2.08379
2.16509
2.29923
2.44836
2.45594
2.45244
2.44409
2.43043
2.42019
2.41992
2.42042
2.42213
2.42701
2.43724
2.45212
2.4629
2.46267
2.46116
2.45543
2.44458
2
2
2
2
2
2
2
2
2
2
2
2
2
2
2
2
2
2
2
2
2
2
2
2
2
2.00001
2.00001
2.00002
2.00004
2.00008
2.00016
2.00029
2.00055
2.001
2.00179
2.00316
2.00556
2.00984
2.01786
2.03389
2.06598
2.13011
2.24844
2.40043
2.46847
2.46665
2.46124
2.44839
2.44204
2.44204
2.44253
2.44547
2.44916
2.45521
2.46658
2.46889
2.46847
2.46639
2.46022
2.44653
2
2
2
2
2
2
2
2
2
2
2
2
2
2
2
2
2
2
2
2
2
2
2
2
2
2.00001
2.00001
2.00002
2.00003
2.00007
2.00012
2.00023
2.00044
2.0008
2.00145
2.00257
2.00453
2.00798
2.01432
2.02676
2.05166
2.10152
2.19908
2.3452
2.47763
2.47656
2.47478
2.47052
2.46648
2.46677
2.46706
2.46779
2.46958
2.47321
2.47826
2.47807
2.47682
2.47283
2.46258
2.44303
2
2
2
2
2
2
2
2
2
2
2
2
2
2
2
2
2
2
2
2
2
2
2
2
2
2
2.00001
2.00001
2.00003
2.00005
2.0001
2.00018
2.00034
2.00064
2.00116
2.00208
2.00367
2.00646
2.01147
2.02107
2.04027
2.07871
2.15553
2.28978
2.45388
2.49721
2.49579
2.49307
2.49056
2.49054
2.49079
2.49125
2.49114
2.49082
2.48995
2.48845
2.48486
2.47645
2.45907
2.43616
2
2
2
2
2
2
2
2
2
2
2
2
2
2
2
2
2
2
2
2
2
2
2
2
2
2
2.00001
2.00001
2.00002
2.00004
2.00007
2.00014
2.00027
2.0005
2.00092
2.00166
2.00295
2.0052
2.00919
2.0166
2.03137
2.06093
2.12011
2.23441
2.39579
2.51689
2.51821
2.51779
2.51694
2.51669
2.51565
2.5144
2.51284
2.51009
2.50479
2.49751
2.48478
2.471
2.45047
2.43327
2
2
2
2
2
2
2
2
2
2
2
2
2
2
2
2
2
2
2
2
2
2
2
2
2
2
2
2.00001
2.00002
2.00003
2.00006
2.00011
2.00021
2.00039
2.00073
2.00132
2.00236
2.00418
2.00736
2.01315
2.02447
2.04715
2.09257
2.18334
2.33659
2.5117
2.55099
2.54968
2.54788
2.54556
2.54368
2.54009
2.53268
2.52447
2.51071
2.49484
2.47967
2.46571
2.44922
2.43402
2
2
2
2
2
2
2
2
2
2
2
2
2
2
2
2
2
2
2
2
2
2
2
2
2
2
2
2.00001
2.00001
2.00002
2.00004
2.00008
2.00016
2.00031
2.00057
2.00105
2.00189
2.00336
2.00591
2.01048
2.0192
2.03666
2.07165
2.14179
2.27692
2.46681
2.58716
2.585
2.58363
2.5805
2.57337
2.55939
2.54198
2.52532
2.50889
2.4943
2.48036
2.46632
2.44983
2.43535
2
2
2
2
2
2
2
2
2
2
2
2
2
2
2
2
2
2
2
2
2
2
2
2
2
2
2
2.00001
2.00001
2.00002
2.00003
2.00007
2.00013
2.00024
2.00045
2.00083
2.00151
2.0027
2.00478
2.00843
2.01521
2.02879
2.05602
2.11062
2.21991
2.40403
2.59917
2.63132
2.62739
2.61721
2.59414
2.57189
2.54913
2.52889
2.51261
2.49809
2.48344
2.46858
2.4517
2.43899
2
2
2
2
2
2
2
2
2
2
2
2
2
2
2
2
2
2
2
2
2
2
2
2
2
2
2
2
2.00001
2.00001
2.00003
2.00005
2.0001
2.00019
2.00036
2.00067
2.00122
2.00221
2.00392
2.00691
2.01234
2.02314
2.04478
2.08824
2.17561
2.34555
2.58432
2.68663
2.67503
2.64675
2.61175
2.57868
2.55064
2.53125
2.5152
2.50024
2.48441
2.46934
2.45241
2.44166
2
2
2
2
2
2
2
2
2
2
2
2
2
2
2
2
2
2
2
2
2
2
2
2
2
2
2
2
2.00001
2.00001
2.00002
2.00004
2.00008
2.00015
2.00029
2.00054
2.001
2.00182
2.00326
2.00575
2.01018
2.01878
2.03599
2.07052
2.13996
2.27934
2.51436
2.7354
2.71918
2.68295
2.64923
2.59289
2.55919
2.53883
2.52121
2.5046
2.48295
2.46872
2.45126
2.44057
2.41225
2.40791
2.39849
2.38451
2.36807
2.3516
2.34046
2.33021
2.31647
2.30092
2.2856
2.27089
2.25587
2.24023
2.22431
2.2083
2.1921
2.17553
2.15849
2.141
2.12312
2.10495
2.08661
2.06823
2.04994
2.03183
2.01384
1.99586
1.97775
1.95943
1.94092
1.92238
1.90403
1.88615
1.86904
1.85305
1.83848
1.82559
1.81428
1.80216
1.79745
1.79551
1.79553
1.79565
1.79606
1.7971
1.79937
1.80406
1.81153
1.81944
1.82716
1.83381
1.83964
1.8452
1.85076
1.85629
1.86163
1.86671
1.87151
1.8761
1.88068
1.88546
1.89066
1.89629
1.90219
1.908
1.9134
1.91816
1.92209
1.92526
2.40807
2.40105
2.38865
2.37358
2.35926
2.34631
2.33483
2.32308
2.30911
2.29397
2.27931
2.26493
2.25001
2.23451
2.21878
2.20296
2.18693
2.17053
2.15368
2.13641
2.1188
2.10093
2.0829
2.06483
2.04682
2.02895
2.01117
1.9934
1.97554
1.95752
1.93937
1.92123
1.90328
1.88581
1.86913
1.85357
1.83937
1.8268
1.81592
1.80586
1.79923
1.79623
1.79604
1.7961
1.79637
1.79716
1.79899
1.80279
1.81031
1.818
1.82563
1.83232
1.83819
1.84374
1.84926
1.85474
1.86006
1.86514
1.86994
1.87451
1.879
1.88364
1.88863
1.89405
1.8998
1.90558
1.91107
1.91605
1.92044
1.92421
2.40322
2.3955
2.38251
2.36827
2.35503
2.34259
2.33061
2.31793
2.30382
2.28903
2.27472
2.2604
2.24548
2.23005
2.21444
2.19873
2.18281
2.16651
2.1498
2.1327
2.11528
2.09763
2.07983
2.06198
2.04418
2.02646
2.00883
1.9912
1.97352
1.95574
1.93791
1.92014
1.90262
1.88559
1.86932
1.85408
1.84015
1.82779
1.81709
1.80771
1.80062
1.79712
1.79641
1.79643
1.79661
1.79722
1.79873
1.80203
1.80873
1.81674
1.82429
1.83102
1.83695
1.84255
1.8481
1.85359
1.85891
1.864
1.86882
1.8734
1.87787
1.88244
1.88731
1.89259
1.89821
1.9039
1.90937
1.91441
1.91903
1.92254
2.39812
2.38924
2.37622
2.36277
2.35023
2.33793
2.32576
2.31282
2.29872
2.28436
2.27031
2.25598
2.24105
2.2257
2.21022
2.19465
2.17883
2.16267
2.14611
2.12919
2.11199
2.09457
2.07701
2.05939
2.04179
2.02424
2.00674
1.98925
1.97172
1.95416
1.93662
1.91919
1.90206
1.88542
1.86953
1.85464
1.84099
1.82884
1.81833
1.80935
1.80223
1.79817
1.79679
1.79679
1.79687
1.79726
1.79838
1.80097
1.80636
1.81491
1.82261
1.82944
1.83545
1.84111
1.84669
1.85222
1.85758
1.8627
1.86756
1.87216
1.87662
1.88113
1.8859
1.89106
1.89657
1.90219
1.90765
1.91274
1.91757
1.92124
2.39258
2.38311
2.37023
2.35744
2.34531
2.33319
2.32082
2.30769
2.29377
2.2798
2.26586
2.25148
2.23656
2.22133
2.20601
2.19057
2.17488
2.15884
2.14245
2.12574
2.10877
2.09159
2.07429
2.05692
2.03952
2.02214
2.00477
1.98741
1.97004
1.95269
1.93541
1.91831
1.90155
1.8853
1.86978
1.85523
1.84187
1.82992
1.81956
1.81084
1.80377
1.79927
1.79736
1.797
1.79704
1.79727
1.79803
1.79993
1.80402
1.81228
1.82065
1.82766
1.83374
1.83945
1.84509
1.85068
1.8561
1.86129
1.86619
1.87084
1.87531
1.87977
1.88446
1.88952
1.89492
1.90048
1.90592
1.91105
1.91604
1.91976
2.38687
2.37703
2.36438
2.3521
2.34026
2.32823
2.31573
2.30261
2.28899
2.27528
2.26135
2.24693
2.23206
2.21698
2.20184
2.18654
2.17097
2.15507
2.13885
2.12235
2.10562
2.08871
2.07167
2.05453
2.03734
2.02012
2.0029
1.98566
1.96845
1.95129
1.93427
1.91749
1.90108
1.88521
1.87005
1.85583
1.84276
1.83104
1.82079
1.81226
1.80518
1.8005
1.79806
1.79709
1.7971
1.7972
1.79766
1.79897
1.802
1.80828
1.81791
1.82555
1.8318
1.83757
1.84328
1.84895
1.85447
1.85974
1.86472
1.86943
1.87393
1.87838
1.88299
1.88795
1.89327
1.89877
1.90421
1.90935
1.91451
1.91791
2.38065
2.37124
2.35858
2.34662
2.33497
2.32299
2.31051
2.29756
2.28423
2.2707
2.25677
2.24237
2.22762
2.21273
2.19775
2.18259
2.16714
2.15139
2.13535
2.11907
2.10258
2.08594
2.06915
2.05224
2.03525
2.0182
2.00111
1.98401
1.96695
1.94999
1.93322
1.91674
1.90067
1.88515
1.87035
1.85645
1.84366
1.83216
1.82206
1.81358
1.80654
1.80164
1.79865
1.79723
1.79692
1.79696
1.79722
1.79806
1.80017
1.80474
1.81395
1.82293
1.82962
1.83547
1.84125
1.84702
1.85266
1.85804
1.86313
1.86792
1.87247
1.87693
1.8815
1.88638
1.8916
1.89706
1.9025
1.90763
1.91295
1.91611
2.3742
2.36563
2.35274
2.34095
2.32945
2.31756
2.30522
2.2925
2.27943
2.26602
2.25214
2.23783
2.22327
2.20858
2.19375
2.17871
2.1634
2.1478
2.13195
2.1159
2.09966
2.08327
2.06673
2.05005
2.03326
2.01637
1.99943
1.98247
1.96556
1.94879
1.93225
1.91605
1.90029
1.88511
1.87065
1.85707
1.84454
1.83325
1.8233
1.81487
1.80785
1.80271
1.79929
1.79736
1.7965
1.79651
1.79663
1.79714
1.79858
1.80192
1.80886
1.81943
1.82711
1.83318
1.839
1.84487
1.85064
1.85617
1.86139
1.86629
1.87092
1.8754
1.87994
1.88476
1.88994
1.89532
1.90077
1.9059
1.91138
1.91438
2.36783
2.35994
2.34683
2.33517
2.32381
2.31207
2.29993
2.28746
2.2746
2.26129
2.24752
2.23337
2.21901
2.2045
2.18982
2.1749
2.15972
2.1443
2.12865
2.11283
2.09685
2.0807
2.0644
2.04795
2.03135
2.01464
1.99784
1.98103
1.96428
1.94769
1.93137
1.91542
1.89996
1.8851
1.87095
1.85767
1.84541
1.83431
1.8245
1.81611
1.80908
1.80367
1.79994
1.79747
1.79607
1.79582
1.79588
1.79616
1.79708
1.7994
1.8044
1.81449
1.82393
1.83062
1.83654
1.84248
1.8484
1.8541
1.85947
1.86451
1.86924
1.87378
1.87832
1.88309
1.88821
1.8936
1.89904
1.90416
1.90976
1.91268
2.3617
2.35416
2.34091
2.32937
2.31818
2.30664
2.29474
2.28248
2.26979
2.25661
2.24298
2.22902
2.21485
2.2005
2.18594
2.17115
2.15613
2.14089
2.12546
2.10988
2.09414
2.07824
2.06217
2.04593
2.02953
2.01299
1.99636
1.9797
1.9631
1.94669
1.93057
1.91487
1.89968
1.88511
1.87126
1.85826
1.84625
1.83535
1.82565
1.81727
1.81022
1.8046
1.80052
1.7976
1.79573
1.79492
1.79494
1.79509
1.79566
1.79723
1.80084
1.80832
1.81962
1.8276
1.83384
1.83986
1.84591
1.85179
1.85736
1.86256
1.86742
1.87204
1.8766
1.88134
1.88642
1.89178
1.89729
1.9024
1.9081