/*--------------------------------*- C++ -*----------------------------------*\
  =========                 |
  \\      /  F ield         | OpenFOAM: The Open Source CFD Toolbox
   \\    /   O peration     | Website:  https://openfoam.org
    \\  /    A nd           | Version:  9
     \\/     M anipulation  |
\*---------------------------------------------------------------------------*/
FoamFile
{
    format      ascii;
    class       surfaceScalarField;
    location    "0.006";
    object      phi;
}
// * * * * * * * * * * * * * * * * * * * * * * * * * * * * * * * * * * * * * //

dimensions      [1 0 -1 0 0 0 0];

internalField   nonuniform List<scalar> 
72280
(
1.12235e-05
-3.49617e-16
1.12235e-05
-9.10424e-16
1.12235e-05
-1.2335e-15
1.12235e-05
-1.38388e-15
1.12235e-05
-1.76146e-15
1.12235e-05
-2.3781e-15
1.12235e-05
-3.22051e-15
1.12235e-05
-4.35854e-15
1.12235e-05
-5.91797e-15
1.12235e-05
-8.08314e-15
1.12235e-05
-1.11133e-14
1.12235e-05
-1.53776e-14
1.12235e-05
-2.14068e-14
1.12235e-05
-2.9965e-14
1.12235e-05
-4.21544e-14
1.12235e-05
-5.95679e-14
1.12235e-05
-8.4516e-14
1.12235e-05
-1.20364e-13
1.12235e-05
-1.72036e-13
1.12235e-05
-2.46777e-13
1.12235e-05
-3.55404e-13
1.12235e-05
-5.14531e-13
1.12235e-05
-7.51042e-13
1.12235e-05
-1.1116e-12
1.12235e-05
-1.68301e-12
1.12235e-05
-2.63463e-12
1.12235e-05
-4.30386e-12
1.12234e-05
-7.36459e-12
1.12234e-05
-1.31547e-11
1.12234e-05
-2.43042e-11
1.12234e-05
-4.59184e-11
1.12233e-05
-8.77505e-11
1.12231e-05
-1.68055e-10
1.12228e-05
-3.20153e-10
1.12222e-05
-6.03169e-10
1.12211e-05
-1.11906e-09
1.12192e-05
-2.03974e-09
1.12158e-05
-3.65291e-09
1.12101e-05
-6.45069e-09
1.12005e-05
-1.13527e-08
1.11833e-05
-2.03367e-08
1.11474e-05
-3.8388e-08
1.10737e-05
-7.47078e-08
1.09253e-05
-1.48208e-07
1.06248e-05
-2.9336e-07
1.00024e-05
-5.81241e-07
9.14929e-06
-1.06234e-06
9.27836e-06
-9.26047e-07
9.30775e-06
-6.54774e-07
9.81958e-06
-3.87476e-07
1.0344e-05
-2.0916e-07
1.05922e-05
-1.38053e-07
1.08018e-05
-8.97712e-08
1.09744e-05
-6.28814e-08
1.11159e-05
-4.32546e-08
1.12727e-05
-2.61926e-08
1.13807e-05
-2.69119e-08
1.1498e-05
-2.33519e-08
1.16165e-05
-3.08244e-08
2.15983e-08
1.17249e-05
1.12235e-05
-3.11458e-16
1.12235e-05
-9.65054e-16
1.12235e-05
-1.47062e-15
1.12235e-05
-1.70256e-15
1.12235e-05
-2.15187e-15
1.12235e-05
-2.91313e-15
1.12235e-05
-3.99025e-15
1.12235e-05
-5.46099e-15
1.12235e-05
-7.48954e-15
1.12235e-05
-1.03295e-14
1.12235e-05
-1.43417e-14
1.12235e-05
-2.00436e-14
1.12235e-05
-2.81835e-14
1.12235e-05
-3.98484e-14
1.12235e-05
-5.6617e-14
1.12235e-05
-8.07862e-14
1.12235e-05
-1.15706e-13
1.12235e-05
-1.66275e-13
1.12235e-05
-2.39685e-13
1.12235e-05
-3.46563e-13
1.12235e-05
-5.0285e-13
1.12235e-05
-7.33233e-13
1.12235e-05
-1.07809e-12
1.12235e-05
-1.6083e-12
1.12235e-05
-2.45659e-12
1.12235e-05
-3.88226e-12
1.12234e-05
-6.40047e-12
1.12234e-05
-1.10361e-11
1.12234e-05
-1.98154e-11
1.12234e-05
-3.67037e-11
1.12233e-05
-6.93592e-11
1.12232e-05
-1.32316e-10
1.12229e-05
-2.52554e-10
1.12224e-05
-4.78859e-10
1.12215e-05
-8.96951e-10
1.12199e-05
-1.65348e-09
1.12169e-05
-2.99486e-09
1.12118e-05
-5.33565e-09
1.12032e-05
-9.39772e-09
1.11882e-05
-1.65698e-08
1.11606e-05
-2.98467e-08
1.11037e-05
-5.62881e-08
1.09883e-05
-1.09457e-07
1.07557e-05
-2.17646e-07
1.02924e-05
-4.41117e-07
9.43395e-06
-8.31317e-07
8.44921e-06
-1.29976e-06
8.50851e-06
-9.66817e-07
8.59547e-06
-7.05725e-07
8.67065e-06
-4.483e-07
9.00136e-06
-2.58226e-07
9.23087e-06
-1.85103e-07
9.40514e-06
-1.45988e-07
9.57281e-06
-1.1648e-07
9.72595e-06
-9.52185e-08
9.87537e-06
-7.638e-08
1.00242e-05
-7.07557e-08
1.01644e-05
-6.37056e-08
1.03126e-05
-7.52159e-08
-4.44864e-08
1.04783e-05
1.12235e-05
-2.64842e-16
1.12235e-05
-9.09886e-16
1.12235e-05
-1.52981e-15
1.12235e-05
-1.88061e-15
1.12235e-05
-2.37106e-15
1.12235e-05
-3.24148e-15
1.12235e-05
-4.4922e-15
1.12235e-05
-6.21256e-15
1.12235e-05
-8.60905e-15
1.12235e-05
-1.19968e-14
1.12235e-05
-1.68289e-14
1.12235e-05
-2.37593e-14
1.12235e-05
-3.37424e-14
1.12235e-05
-4.81715e-14
1.12235e-05
-6.90828e-14
1.12235e-05
-9.94552e-14
1.12235e-05
-1.43653e-13
1.12235e-05
-2.08083e-13
1.12235e-05
-3.02186e-13
1.12235e-05
-4.39969e-13
1.12235e-05
-6.42584e-13
1.12235e-05
-9.43148e-13
1.12235e-05
-1.39662e-12
1.12235e-05
-2.10082e-12
1.12235e-05
-3.24054e-12
1.12234e-05
-5.17752e-12
1.12234e-05
-8.6293e-12
1.12234e-05
-1.50187e-11
1.12234e-05
-2.71469e-11
1.12234e-05
-5.04688e-11
1.12233e-05
-9.545e-11
1.12231e-05
-1.81788e-10
1.12228e-05
-3.45685e-10
1.12221e-05
-6.5188e-10
1.1221e-05
-1.21295e-09
1.12189e-05
-2.22006e-09
1.12152e-05
-3.99413e-09
1.12089e-05
-7.08062e-09
1.11981e-05
-1.24533e-08
1.11792e-05
-2.20558e-08
1.11426e-05
-4.03105e-08
1.10706e-05
-7.67434e-08
1.0925e-05
-1.50127e-07
1.0634e-05
-2.99703e-07
1.00345e-05
-5.98643e-07
9.13924e-06
-1.03082e-06
8.41113e-06
-1.25685e-06
8.45058e-06
-9.415e-07
8.50516e-06
-7.0559e-07
8.58435e-06
-4.77337e-07
8.68922e-06
-3.01373e-07
8.87765e-06
-1.92988e-07
9.00913e-06
-1.47903e-07
9.122e-06
-1.17642e-07
9.23024e-06
-1.00163e-07
9.33843e-06
-8.77753e-08
9.45416e-06
-8.78646e-08
9.56767e-06
-8.18435e-08
9.68651e-06
-9.59842e-08
-7.82349e-08
9.81686e-06
1.12235e-05
-2.46623e-16
1.12235e-05
-8.79457e-16
1.12235e-05
-1.5555e-15
1.12235e-05
-1.98637e-15
1.12235e-05
-2.57976e-15
1.12235e-05
-3.56381e-15
1.12235e-05
-4.97032e-15
1.12235e-05
-6.9345e-15
1.12235e-05
-9.70403e-15
1.12235e-05
-1.36565e-14
1.12235e-05
-1.93413e-14
1.12235e-05
-2.75606e-14
1.12235e-05
-3.94894e-14
1.12235e-05
-5.68525e-14
1.12235e-05
-8.21819e-14
1.12235e-05
-1.19197e-13
1.12235e-05
-1.73368e-13
1.12235e-05
-2.52753e-13
1.12235e-05
-3.69263e-13
1.12235e-05
-5.40651e-13
1.12235e-05
-7.93937e-13
1.12235e-05
-1.17195e-12
1.12235e-05
-1.74689e-12
1.12235e-05
-2.64906e-12
1.12235e-05
-4.12652e-12
1.12234e-05
-6.66582e-12
1.12234e-05
-1.12307e-11
1.12234e-05
-1.97262e-11
1.12234e-05
-3.58872e-11
1.12233e-05
-6.69454e-11
1.12232e-05
-1.26672e-10
1.1223e-05
-2.40739e-10
1.12225e-05
-4.55815e-10
1.12217e-05
-8.54407e-10
1.12203e-05
-1.57859e-09
1.12176e-05
-2.86838e-09
1.12131e-05
-5.12796e-09
1.12053e-05
-9.05522e-09
1.11919e-05
-1.59421e-08
1.1168e-05
-2.84656e-08
1.11205e-05
-5.29477e-08
1.1026e-05
-1.02005e-07
1.08379e-05
-2.0126e-07
1.04673e-05
-4.04878e-07
9.77879e-06
-7.68166e-07
8.93323e-06
-1.31292e-06
8.56391e-06
-1.15596e-06
8.5578e-06
-9.34669e-07
8.6e-06
-7.11386e-07
8.65465e-06
-5.13589e-07
8.74333e-06
-3.38792e-07
8.82154e-06
-2.07933e-07
8.93197e-06
-1.26733e-07
9.01798e-06
-8.73634e-08
9.09252e-06
-6.9463e-08
9.17126e-06
-6.34231e-08
9.25927e-06
-7.34331e-08
9.3503e-06
-7.87775e-08
9.44744e-06
-9.81375e-08
-9.8741e-08
9.55869e-06
1.12235e-05
-2.42527e-16
1.12235e-05
-8.73515e-16
1.12235e-05
-1.58766e-15
1.12235e-05
-2.0733e-15
1.12235e-05
-2.80548e-15
1.12235e-05
-3.91344e-15
1.12235e-05
-5.48487e-15
1.12235e-05
-7.70883e-15
1.12235e-05
-1.0882e-14
1.12235e-05
-1.54503e-14
1.12235e-05
-2.20698e-14
1.12235e-05
-3.17052e-14
1.12235e-05
-4.5776e-14
1.12235e-05
-6.63737e-14
1.12235e-05
-9.65792e-14
1.12235e-05
-1.40935e-13
1.12235e-05
-2.06143e-13
1.12235e-05
-3.02102e-13
1.12235e-05
-4.43492e-13
1.12235e-05
-6.52296e-13
1.12235e-05
-9.62259e-13
1.12235e-05
-1.4276e-12
1.12235e-05
-2.14118e-12
1.12235e-05
-3.27274e-12
1.12235e-05
-5.14764e-12
1.12234e-05
-8.40501e-12
1.12234e-05
-1.43087e-11
1.12234e-05
-2.53491e-11
1.12234e-05
-4.63855e-11
1.12233e-05
-8.67664e-11
1.12231e-05
-1.64143e-10
1.12228e-05
-3.11086e-10
1.12223e-05
-5.86115e-10
1.12212e-05
-1.09155e-09
1.12194e-05
-2.00207e-09
1.12161e-05
-3.61211e-09
1.12104e-05
-6.42131e-09
1.12007e-05
-1.13113e-08
1.11839e-05
-1.99881e-08
1.11533e-05
-3.61256e-08
1.10925e-05
-6.83585e-08
1.09716e-05
-1.33258e-07
1.07313e-05
-2.65181e-07
1.02413e-05
-5.30914e-07
9.51565e-06
-9.33291e-07
8.85636e-06
-1.29915e-06
8.75874e-06
-1.06613e-06
8.73838e-06
-9.14301e-07
8.7149e-06
-7.3764e-07
8.75418e-06
-5.63782e-07
8.8186e-06
-4.00085e-07
8.89383e-06
-2.54402e-07
8.95288e-06
-1.36468e-07
9.0331e-06
-5.79461e-08
9.06927e-06
-1.69675e-08
9.1279e-06
-5.20137e-09
9.21016e-06
-1.74635e-08
9.28871e-06
-4.43757e-08
9.36671e-06
-7.5782e-08
-9.86113e-08
9.45847e-06
1.12235e-05
-2.46175e-16
1.12235e-05
-8.88592e-16
1.12235e-05
-1.6405e-15
1.12235e-05
-2.1772e-15
1.12235e-05
-3.04289e-15
1.12235e-05
-4.291e-15
1.12235e-05
-6.04754e-15
1.12235e-05
-8.55765e-15
1.12235e-05
-1.21749e-14
1.12235e-05
-1.74226e-14
1.12235e-05
-2.50755e-14
1.12235e-05
-3.62783e-14
1.12235e-05
-5.27217e-14
1.12235e-05
-7.69038e-14
1.12235e-05
-1.12517e-13
1.12235e-05
-1.6502e-13
1.12235e-05
-2.42488e-13
1.12235e-05
-3.56879e-13
1.12235e-05
-5.25978e-13
1.12235e-05
-7.76563e-13
1.12235e-05
-1.15012e-12
1.12235e-05
-1.71428e-12
1.12235e-05
-2.58664e-12
1.12235e-05
-3.98474e-12
1.12234e-05
-6.32793e-12
1.12234e-05
-1.04408e-11
1.12234e-05
-1.79509e-11
1.12234e-05
-3.20534e-11
1.12233e-05
-5.895e-11
1.12232e-05
-1.10485e-10
1.1223e-05
-2.08817e-10
1.12226e-05
-3.94381e-10
1.12219e-05
-7.38995e-10
1.12206e-05
-1.36692e-09
1.12183e-05
-2.48895e-09
1.12142e-05
-4.46063e-09
1.12072e-05
-7.89336e-09
1.11951e-05
-1.3898e-08
1.11739e-05
-2.47253e-08
1.11343e-05
-4.54598e-08
1.1055e-05
-8.72917e-08
1.0897e-05
-1.71954e-07
1.05816e-05
-3.45136e-07
9.99232e-06
-6.67377e-07
9.25841e-06
-1.10239e-06
8.88993e-06
-1.17702e-06
8.86438e-06
-1.0302e-06
8.84188e-06
-8.91766e-07
8.85451e-06
-7.45688e-07
8.88048e-06
-5.97476e-07
8.90193e-06
-4.50972e-07
8.95059e-06
-3.09023e-07
8.99948e-06
-1.78817e-07
9.04156e-06
-7.06352e-08
9.08861e-06
-3.40083e-10
9.12268e-06
3.97797e-08
9.1958e-06
4.49828e-08
9.2637e-06
1.69022e-08
9.33345e-06
-3.41346e-08
-7.91587e-08
9.41965e-06
1.12235e-05
-2.54473e-16
1.12235e-05
-9.19315e-16
1.12235e-05
-1.71339e-15
1.12235e-05
-2.30586e-15
1.12235e-05
-3.29995e-15
1.12235e-05
-4.69697e-15
1.12235e-05
-6.66011e-15
1.12235e-05
-9.48711e-15
1.12235e-05
-1.35934e-14
1.12235e-05
-1.95896e-14
1.12235e-05
-2.83821e-14
1.12235e-05
-4.13142e-14
1.12235e-05
-6.03765e-14
1.12235e-05
-8.85177e-14
1.12235e-05
-1.30107e-13
1.12235e-05
-1.91621e-13
1.12235e-05
-2.8266e-13
1.12235e-05
-4.17476e-13
1.12235e-05
-6.17329e-13
1.12235e-05
-9.14412e-13
1.12235e-05
-1.35913e-12
1.12235e-05
-2.03482e-12
1.12235e-05
-3.08861e-12
1.12235e-05
-4.79546e-12
1.12234e-05
-7.68802e-12
1.12234e-05
-1.28141e-11
1.12234e-05
-2.22372e-11
1.12234e-05
-3.99918e-11
1.12233e-05
-7.38613e-11
1.12232e-05
-1.38592e-10
1.12229e-05
-2.61498e-10
1.12224e-05
-4.91864e-10
1.12215e-05
-9.16245e-10
1.12198e-05
-1.68305e-09
1.12169e-05
-3.04305e-09
1.12118e-05
-5.42131e-09
1.12031e-05
-9.56213e-09
1.11881e-05
-1.6872e-08
1.11613e-05
-3.03173e-08
1.11085e-05
-5.69079e-08
1.10041e-05
-1.10587e-07
1.07999e-05
-2.19672e-07
1.03873e-05
-4.41819e-07
9.75489e-06
-8.02697e-07
9.11265e-06
-1.26724e-06
9.02596e-06
-1.07854e-06
8.98848e-06
-1.00229e-06
8.96886e-06
-8.88662e-07
8.96661e-06
-7.51506e-07
8.97103e-06
-6.11413e-07
8.9982e-06
-4.7249e-07
9.01572e-06
-3.36865e-07
9.05439e-06
-2.09313e-07
9.08161e-06
-9.89886e-08
9.12619e-06
-2.23356e-08
9.18714e-06
2.71055e-08
9.22802e-06
5.73206e-08
9.25805e-06
5.66649e-08
9.31248e-06
2.04031e-08
-3.21168e-08
9.41267e-06
1.12235e-05
-2.66137e-16
1.12235e-05
-9.63125e-16
1.12235e-05
-1.80878e-15
1.12235e-05
-2.47389e-15
1.12235e-05
-3.56886e-15
1.12235e-05
-5.1276e-15
1.12235e-05
-7.32057e-15
1.12235e-05
-1.04966e-14
1.12235e-05
-1.5139e-14
1.12235e-05
-2.1955e-14
1.12235e-05
-3.19954e-14
1.12235e-05
-4.68224e-14
1.12235e-05
-6.87558e-14
1.12235e-05
-1.0124e-13
1.12235e-05
-1.4939e-13
1.12235e-05
-2.20803e-13
1.12235e-05
-3.26766e-13
1.12235e-05
-4.84066e-13
1.12235e-05
-7.17824e-13
1.12235e-05
-1.06633e-12
1.12235e-05
-1.59019e-12
1.12235e-05
-2.39109e-12
1.12235e-05
-3.65105e-12
1.12234e-05
-5.71338e-12
1.12234e-05
-9.24573e-12
1.12234e-05
-1.55614e-11
1.12234e-05
-2.72398e-11
1.12234e-05
-4.93004e-11
1.12233e-05
-9.13621e-11
1.12231e-05
-1.71491e-10
1.12227e-05
-3.22803e-10
1.12221e-05
-6.04387e-10
1.12209e-05
-1.11894e-09
1.12189e-05
-2.04129e-09
1.12152e-05
-3.66654e-09
1.1209e-05
-6.49974e-09
1.11983e-05
-1.14462e-08
1.11796e-05
-2.02974e-08
1.11453e-05
-3.69727e-08
1.10771e-05
-7.06411e-08
1.0942e-05
-1.38774e-07
1.06739e-05
-2.77862e-07
1.01572e-05
-5.50312e-07
9.49202e-06
-9.34733e-07
9.09847e-06
-1.15521e-06
9.09554e-06
-1.05751e-06
9.10378e-06
-9.85097e-07
9.09226e-06
-8.75782e-07
9.08972e-06
-7.45675e-07
9.08477e-06
-6.13296e-07
9.07689e-06
-4.83889e-07
9.07705e-06
-3.57273e-07
9.08366e-06
-2.35006e-07
9.08806e-06
-1.23954e-07
9.1318e-06
-4.08042e-08
9.18184e-06
2.96361e-09
9.23904e-06
3.68179e-08
9.30583e-06
5.72318e-08
9.28264e-06
5.16237e-08
1.92191e-08
9.40858e-06
1.12235e-05
-2.80721e-16
1.12235e-05
-1.0189e-15
1.12235e-05
-1.92207e-15
1.12235e-05
-2.67368e-15
1.12235e-05
-3.86078e-15
1.12235e-05
-5.58118e-15
1.12235e-05
-8.02538e-15
1.12235e-05
-1.15824e-14
1.12235e-05
-1.68078e-14
1.12235e-05
-2.45135e-14
1.12235e-05
-3.59083e-14
1.12235e-05
-5.27926e-14
1.12235e-05
-7.78448e-14
1.12235e-05
-1.1505e-13
1.12235e-05
-1.70339e-13
1.12235e-05
-2.52534e-13
1.12235e-05
-3.74766e-13
1.12235e-05
-5.56597e-13
1.12235e-05
-8.27411e-13
1.12235e-05
-1.2323e-12
1.12235e-05
-1.84348e-12
1.12235e-05
-2.78388e-12
1.12235e-05
-4.27636e-12
1.12234e-05
-6.74463e-12
1.12234e-05
-1.10152e-11
1.12234e-05
-1.87126e-11
1.12234e-05
-3.3018e-11
1.12233e-05
-6.00882e-11
1.12232e-05
-1.11636e-10
1.1223e-05
-2.09459e-10
1.12225e-05
-3.9309e-10
1.12217e-05
-7.32314e-10
1.12203e-05
-1.34731e-09
1.12177e-05
-2.44165e-09
1.12133e-05
-4.35972e-09
1.12057e-05
-7.69954e-09
1.11925e-05
-1.35665e-08
1.11692e-05
-2.42447e-08
1.11253e-05
-4.49881e-08
1.10379e-05
-8.706e-08
1.08639e-05
-1.72533e-07
1.05164e-05
-3.47621e-07
9.92938e-06
-6.60726e-07
9.26804e-06
-1.12959e-06
9.18342e-06
-1.03175e-06
9.18759e-06
-1.03226e-06
9.19094e-06
-9.72835e-07
9.18521e-06
-8.68648e-07
9.163e-06
-7.31797e-07
9.13769e-06
-6.11356e-07
9.17147e-06
-4.92035e-07
9.19497e-06
-3.74201e-07
9.17305e-06
-2.61004e-07
9.14378e-06
-1.53739e-07
9.11895e-06
-5.94664e-08
9.16726e-06
-6.61961e-09
9.22085e-06
2.20952e-08
9.2745e-06
4.85393e-08
9.32959e-06
6.09443e-08
4.89376e-08
9.38357e-06
1.12235e-05
-2.97958e-16
1.12235e-05
-1.08446e-15
1.12235e-05
-2.04424e-15
1.12235e-05
-2.88369e-15
1.12235e-05
-4.1817e-15
1.12235e-05
-6.06733e-15
1.12235e-05
-8.77678e-15
1.12235e-05
-1.27417e-14
1.12235e-05
-1.85917e-14
1.12235e-05
-2.72517e-14
1.12235e-05
-4.01002e-14
1.12235e-05
-5.9194e-14
1.12235e-05
-8.75987e-14
1.12235e-05
-1.29884e-13
1.12235e-05
-1.9286e-13
1.12235e-05
-2.86676e-13
1.12235e-05
-4.26455e-13
1.12235e-05
-6.34773e-13
1.12235e-05
-9.45663e-13
1.12235e-05
-1.41175e-12
1.12235e-05
-2.11836e-12
1.12235e-05
-3.21276e-12
1.12234e-05
-4.96507e-12
1.12234e-05
-7.89233e-12
1.12234e-05
-1.30052e-11
1.12234e-05
-2.22881e-11
1.12234e-05
-3.96119e-11
1.12233e-05
-7.24248e-11
1.12231e-05
-1.34785e-10
1.12228e-05
-2.52605e-10
1.12223e-05
-4.72392e-10
1.12213e-05
-8.75424e-10
1.12195e-05
-1.60061e-09
1.12164e-05
-2.88266e-09
1.1211e-05
-5.12106e-09
1.12017e-05
-9.02246e-09
1.11856e-05
-1.59457e-08
1.11565e-05
-2.87995e-08
1.10994e-05
-5.44968e-08
1.09866e-05
-1.06535e-07
1.0762e-05
-2.12616e-07
1.03197e-05
-4.28194e-07
9.70328e-06
-7.67951e-07
9.18361e-06
-1.14492e-06
9.22297e-06
-1.03344e-06
9.20657e-06
-9.95385e-07
9.24926e-06
-9.40104e-07
9.30199e-06
-8.37312e-07
9.26855e-06
-7.22395e-07
9.23891e-06
-6.14237e-07
9.22794e-06
-5.06804e-07
9.19281e-06
-3.98779e-07
9.26774e-06
-2.9091e-07
9.2157e-06
-1.86238e-07
9.15544e-06
-8.70467e-08
9.18367e-06
-6.62504e-09
9.22333e-06
1.95551e-08
9.24297e-06
4.49898e-08
9.24287e-06
6.55712e-08
6.75095e-08
9.35769e-06
1.12235e-05
-3.17146e-16
1.12235e-05
-1.15671e-15
1.12235e-05
-2.17228e-15
1.12235e-05
-3.09953e-15
1.12235e-05
-4.5204e-15
1.12235e-05
-6.5805e-15
1.12235e-05
-9.57054e-15
1.12235e-05
-1.39672e-14
1.12235e-05
-2.04779e-14
1.12235e-05
-3.01482e-14
1.12235e-05
-4.45373e-14
1.12235e-05
-6.59748e-14
1.12235e-05
-9.79389e-14
1.12235e-05
-1.45623e-13
1.12235e-05
-2.16779e-13
1.12235e-05
-3.22972e-13
1.12235e-05
-4.81453e-13
1.12235e-05
-7.18023e-13
1.12235e-05
-1.07174e-12
1.12235e-05
-1.6035e-12
1.12235e-05
-2.41326e-12
1.12235e-05
-3.67587e-12
1.12234e-05
-5.71544e-12
1.12234e-05
-9.15581e-12
1.12234e-05
-1.52181e-11
1.12234e-05
-2.62955e-11
1.12233e-05
-4.70362e-11
1.12232e-05
-8.6327e-11
1.1223e-05
-1.60803e-10
1.12227e-05
-3.0083e-10
1.1222e-05
-5.60363e-10
1.12208e-05
-1.03285e-09
1.12186e-05
-1.87706e-09
1.12148e-05
-3.36131e-09
1.12083e-05
-5.94698e-09
1.11971e-05
-1.0469e-08
1.11774e-05
-1.86045e-08
1.11409e-05
-3.40566e-08
1.10685e-05
-6.54533e-08
1.09249e-05
-1.29138e-07
1.06389e-05
-2.59485e-07
1.01046e-05
-5.1427e-07
9.44333e-06
-8.70358e-07
9.28897e-06
-1.04771e-06
9.29954e-06
-1.0294e-06
9.19723e-06
-9.89257e-07
9.30718e-06
-9.07263e-07
9.38427e-06
-8.01603e-07
9.35835e-06
-7.12195e-07
9.33742e-06
-6.13293e-07
9.32857e-06
-5.1874e-07
9.33369e-06
-4.23499e-07
9.31406e-06
-3.26934e-07
9.27661e-06
-2.27882e-07
9.22778e-06
-1.21629e-07
9.17005e-06
-1.81503e-08
9.21418e-06
2.438e-08
9.25738e-06
5.30283e-08
9.30806e-06
8.23995e-08
9.64791e-08
9.36918e-06
1.12235e-05
-3.37304e-16
1.12235e-05
-1.23337e-15
1.12235e-05
-2.30424e-15
1.12235e-05
-3.31865e-15
1.12235e-05
-4.87333e-15
1.12235e-05
-7.11581e-15
1.12235e-05
-1.03963e-14
1.12235e-05
-1.52434e-14
1.12235e-05
-2.24444e-14
1.12235e-05
-3.31699e-14
1.12235e-05
-4.91693e-14
1.12235e-05
-7.3059e-14
1.12235e-05
-1.08752e-13
1.12235e-05
-1.62099e-13
1.12235e-05
-2.41843e-13
1.12235e-05
-3.6104e-13
1.12235e-05
-5.39183e-13
1.12235e-05
-8.05482e-13
1.12235e-05
-1.20436e-12
1.12235e-05
-1.80568e-12
1.12235e-05
-2.72556e-12
1.12235e-05
-4.16974e-12
1.12234e-05
-6.5231e-12
1.12234e-05
-1.05299e-11
1.12234e-05
-1.76477e-11
1.12234e-05
-3.07259e-11
1.12233e-05
-5.52725e-11
1.12232e-05
-1.01746e-10
1.12229e-05
-1.89557e-10
1.12225e-05
-3.53798e-10
1.12217e-05
-6.56235e-10
1.12202e-05
-1.20301e-09
1.12176e-05
-2.1738e-09
1.1213e-05
-3.87305e-09
1.12052e-05
-6.83175e-09
1.11918e-05
-1.20391e-08
1.11677e-05
-2.15599e-08
1.11219e-05
-4.01879e-08
1.10311e-05
-7.80245e-08
1.08499e-05
-1.5503e-07
1.04886e-05
-3.13344e-07
9.89489e-06
-5.9868e-07
9.24808e-06
-9.98361e-07
9.25478e-06
-9.53278e-07
9.30953e-06
-9.76886e-07
9.36413e-06
-9.52585e-07
9.38713e-06
-8.84479e-07
9.44128e-06
-7.77004e-07
9.41491e-06
-6.94975e-07
9.4266e-06
-6.11404e-07
9.4238e-06
-5.30597e-07
9.39845e-06
-4.48497e-07
9.36814e-06
-3.63562e-07
9.35101e-06
-2.72818e-07
9.31017e-06
-1.68564e-07
9.20591e-06
-5.4616e-08
9.23924e-06
3.17609e-08
9.26547e-06
6.94214e-08
9.31907e-06
9.91653e-08
1.18889e-07
9.28569e-06
1.12235e-05
-3.57779e-16
1.12235e-05
-1.3123e-15
1.12235e-05
-2.43834e-15
1.12235e-05
-3.53952e-15
1.12235e-05
-5.23305e-15
1.12235e-05
-7.66484e-15
1.12235e-05
-1.12431e-14
1.12235e-05
-1.65524e-14
1.12235e-05
-2.44627e-14
1.12235e-05
-3.62735e-14
1.12235e-05
-5.39304e-14
1.12235e-05
-8.03473e-14
1.12235e-05
-1.19888e-13
1.12235e-05
-1.79086e-13
1.12235e-05
-2.67711e-13
1.12235e-05
-4.00367e-13
1.12235e-05
-5.98868e-13
1.12235e-05
-8.95977e-13
1.12235e-05
-1.34176e-12
1.12235e-05
-2.0157e-12
1.12235e-05
-3.05156e-12
1.12234e-05
-4.68914e-12
1.12234e-05
-7.38074e-12
1.12234e-05
-1.2004e-11
1.12234e-05
-2.02775e-11
1.12234e-05
-3.55506e-11
1.12233e-05
-6.42632e-11
1.12231e-05
-1.18556e-10
1.12228e-05
-2.20767e-10
1.12223e-05
-4.10907e-10
1.12213e-05
-7.58788e-10
1.12195e-05
-1.38361e-09
1.12164e-05
-2.48683e-09
1.1211e-05
-4.41175e-09
1.12017e-05
-7.76746e-09
1.11855e-05
-1.37305e-08
1.11561e-05
-2.48318e-08
1.10986e-05
-4.71024e-08
1.09844e-05
-9.22559e-08
1.07566e-05
-1.844e-07
1.03087e-05
-3.73096e-07
9.685e-06
-6.78053e-07
9.16611e-06
-1.03697e-06
9.26968e-06
-9.80843e-07
9.27781e-06
-9.30765e-07
9.35272e-06
-9.07629e-07
9.47366e-06
-8.39566e-07
9.50097e-06
-7.5803e-07
9.4736e-06
-6.80604e-07
9.46137e-06
-6.10231e-07
9.49796e-06
-5.40831e-07
9.4839e-06
-4.70669e-07
9.45302e-06
-3.97834e-07
9.42095e-06
-3.18742e-07
9.39147e-06
-2.25529e-07
9.28206e-06
-1.05656e-07
9.2154e-06
2.14091e-08
9.26584e-06
8.26807e-08
9.30747e-06
1.19109e-07
1.54561e-07
9.34396e-06
1.12235e-05
-3.77963e-16
1.12235e-05
-1.39158e-15
1.12235e-05
-2.57259e-15
1.12235e-05
-3.76113e-15
1.12235e-05
-5.58979e-15
1.12235e-05
-8.21738e-15
1.12235e-05
-1.20963e-14
1.12235e-05
-1.78714e-14
1.12235e-05
-2.64976e-14
1.12235e-05
-3.94056e-14
1.12235e-05
-5.87397e-14
1.12235e-05
-8.77173e-14
1.12235e-05
-1.31162e-13
1.12235e-05
-1.96303e-13
1.12235e-05
-2.93959e-13
1.12235e-05
-4.40307e-13
1.12235e-05
-6.59531e-13
1.12235e-05
-9.88028e-13
1.12235e-05
-1.48173e-12
1.12235e-05
-2.2303e-12
1.12235e-05
-3.38646e-12
1.12234e-05
-5.22704e-12
1.12234e-05
-8.27781e-12
1.12234e-05
-1.35617e-11
1.12234e-05
-2.30797e-11
1.12233e-05
-4.07179e-11
1.12232e-05
-7.39056e-11
1.12231e-05
-1.36545e-10
1.12227e-05
-2.53995e-10
1.1222e-05
-4.71281e-10
1.12208e-05
-8.66351e-10
1.12187e-05
-1.57166e-09
1.1215e-05
-2.81109e-09
1.12087e-05
-4.96974e-09
1.11977e-05
-8.7444e-09
1.11784e-05
-1.55353e-08
1.11424e-05
-2.84287e-08
1.10712e-05
-5.46874e-08
1.09298e-05
-1.0798e-07
1.06473e-05
-2.171e-07
1.0114e-05
-4.34987e-07
9.44533e-06
-7.51695e-07
9.30039e-06
-9.56605e-07
9.29892e-06
-9.54617e-07
9.1909e-06
-9.29821e-07
9.35968e-06
-8.57992e-07
9.52108e-06
-7.89921e-07
9.56334e-06
-7.34512e-07
9.53758e-06
-6.71052e-07
9.5205e-06
-6.09011e-07
9.54848e-06
-5.49029e-07
9.53637e-06
-4.89163e-07
9.50636e-06
-4.27211e-07
9.47869e-06
-3.59013e-07
9.45218e-06
-2.76854e-07
9.37059e-06
-1.7274e-07
9.26456e-06
-2.82876e-08
9.28879e-06
9.31181e-08
9.28991e-06
1.35197e-07
1.79452e-07
9.29777e-06
1.12235e-05
-3.97856e-16
1.12235e-05
-1.46968e-15
1.12235e-05
-2.70382e-15
1.12235e-05
-3.97802e-15
1.12235e-05
-5.93655e-15
1.12235e-05
-8.76119e-15
1.12235e-05
-1.29388e-14
1.12235e-05
-1.91741e-14
1.12235e-05
-2.85087e-14
1.12235e-05
-4.25034e-14
1.12235e-05
-6.35019e-14
1.12235e-05
-9.5024e-14
1.12235e-05
-1.42354e-13
1.12235e-05
-2.13416e-13
1.12235e-05
-3.20078e-13
1.12235e-05
-4.80087e-13
1.12235e-05
-7.19993e-13
1.12235e-05
-1.07986e-12
1.12235e-05
-1.6216e-12
1.12235e-05
-2.44549e-12
1.12235e-05
-3.72432e-12
1.12234e-05
-5.77447e-12
1.12234e-05
-9.20034e-12
1.12234e-05
-1.51798e-11
1.12234e-05
-2.60134e-11
1.12233e-05
-4.61508e-11
1.12232e-05
-8.4048e-11
1.1223e-05
-1.55409e-10
1.12225e-05
-2.88641e-10
1.12218e-05
-5.33767e-10
1.12203e-05
-9.76804e-10
1.12178e-05
-1.76345e-09
1.12135e-05
-3.1405e-09
1.12061e-05
-5.53766e-09
1.11932e-05
-9.75132e-09
1.11701e-05
-1.74388e-08
1.11264e-05
-3.24139e-08
1.10395e-05
-6.28994e-08
1.08663e-05
-1.24958e-07
1.0519e-05
-2.52779e-07
9.92341e-06
-4.94216e-07
9.24489e-06
-8.12683e-07
9.25598e-06
-8.87237e-07
9.3005e-06
-9.04973e-07
9.34371e-06
-8.91642e-07
9.40129e-06
-8.28778e-07
9.54165e-06
-7.507e-07
9.60965e-06
-7.06812e-07
9.60724e-06
-6.61412e-07
9.58277e-06
-6.06919e-07
9.56814e-06
-5.56276e-07
9.5597e-06
-5.0616e-07
9.55158e-06
-4.54148e-07
9.55537e-06
-3.96513e-07
9.53379e-06
-3.28056e-07
9.45418e-06
-2.37784e-07
9.35527e-06
-1.07027e-07
9.27242e-06
4.8363e-08
9.29854e-06
1.43907e-07
1.98771e-07
9.31823e-06
1.12235e-05
-4.1652e-16
1.12235e-05
-1.54458e-15
1.12235e-05
-2.83281e-15
1.12235e-05
-4.18477e-15
1.12235e-05
-6.26598e-15
1.12235e-05
-9.28155e-15
1.12235e-05
-1.37497e-14
1.12235e-05
-2.04301e-14
1.12235e-05
-3.04496e-14
1.12235e-05
-4.54965e-14
1.12235e-05
-6.81093e-14
1.12235e-05
-1.02104e-13
1.12235e-05
-1.53214e-13
1.12235e-05
-2.30045e-13
1.12235e-05
-3.45488e-13
1.12235e-05
-5.18821e-13
1.12235e-05
-7.78911e-13
1.12235e-05
-1.16943e-12
1.12235e-05
-1.7583e-12
1.12235e-05
-2.65665e-12
1.12234e-05
-4.05813e-12
1.12234e-05
-6.32058e-12
1.12234e-05
-1.01308e-11
1.12234e-05
-1.68283e-11
1.12234e-05
-2.90241e-11
1.12233e-05
-5.17457e-11
1.12231e-05
-9.44881e-11
1.12229e-05
-1.74753e-10
1.12224e-05
-3.23945e-10
1.12214e-05
-5.96947e-10
1.12198e-05
-1.08761e-09
1.12169e-05
-1.95462e-09
1.12118e-05
-3.46803e-09
1.12032e-05
-6.1046e-09
1.11881e-05
-1.07745e-08
1.11607e-05
-1.94231e-08
1.11071e-05
-3.66852e-08
1.10012e-05
-7.17028e-08
1.079e-05
-1.43175e-07
1.03701e-05
-2.90505e-07
9.73471e-06
-5.47516e-07
9.1238e-06
-8.93496e-07
9.21009e-06
-8.29706e-07
9.29668e-06
-8.34046e-07
9.40197e-06
-8.41884e-07
9.46431e-06
-7.90062e-07
9.56022e-06
-7.19458e-07
9.63662e-06
-6.79084e-07
9.6494e-06
-6.4736e-07
9.6248e-06
-6.0283e-07
9.6081e-06
-5.60314e-07
9.58846e-06
-5.18235e-07
9.59481e-06
-4.74646e-07
9.54729e-06
-4.26615e-07
9.58511e-06
-3.68849e-07
9.53682e-06
-2.96136e-07
9.45149e-06
-1.9015e-07
9.34723e-06
-4.19994e-08
9.29238e-06
1.04119e-07
2.00502e-07
9.33296e-06
1.12235e-05
-4.34471e-16
1.12235e-05
-1.61507e-15
1.12235e-05
-2.96286e-15
1.12235e-05
-4.37287e-15
1.12235e-05
-6.5682e-15
1.12235e-05
-9.7633e-15
1.12235e-05
-1.45057e-14
1.12235e-05
-2.16056e-14
1.12235e-05
-3.22696e-14
1.12235e-05
-4.8308e-14
1.12235e-05
-7.24443e-14
1.12235e-05
-1.08776e-13
1.12235e-05
-1.63467e-13
1.12235e-05
-2.4577e-13
1.12235e-05
-3.69546e-13
1.12235e-05
-5.55529e-13
1.12235e-05
-8.34788e-13
1.12235e-05
-1.25447e-12
1.12235e-05
-1.88841e-12
1.12235e-05
-2.8586e-12
1.12234e-05
-4.37994e-12
1.12234e-05
-6.85269e-12
1.12234e-05
-1.1048e-11
1.12234e-05
-1.84701e-11
1.12234e-05
-3.20433e-11
1.12233e-05
-5.73718e-11
1.12231e-05
-1.04973e-10
1.12228e-05
-1.94092e-10
1.12222e-05
-3.58998e-10
1.12211e-05
-6.5918e-10
1.12191e-05
-1.19591e-09
1.12158e-05
-2.14036e-09
1.121e-05
-3.78582e-09
1.12e-05
-6.65833e-09
1.11824e-05
-1.17957e-08
1.11499e-05
-2.14628e-08
1.10855e-05
-4.10714e-08
1.09575e-05
-8.08367e-08
1.07029e-05
-1.62161e-07
1.0205e-05
-3.28879e-07
9.54004e-06
-5.93949e-07
9.24666e-06
-8.6409e-07
9.06416e-06
-8.52015e-07
9.18074e-06
-8.05871e-07
9.34241e-06
-7.81144e-07
9.51067e-06
-7.37722e-07
9.58433e-06
-6.88767e-07
9.65151e-06
-6.52652e-07
9.68215e-06
-6.29858e-07
9.66294e-06
-6.00252e-07
9.64397e-06
-5.61923e-07
9.62226e-06
-5.25737e-07
9.65365e-06
-4.88938e-07
9.64286e-06
-4.49983e-07
9.61215e-06
-4.04637e-07
9.59216e-06
-3.46562e-07
9.54721e-06
-2.66201e-07
9.45457e-06
-1.45886e-07
9.35801e-06
1.49974e-08
1.73784e-07
9.32103e-06
1.12235e-05
-4.5086e-16
1.12235e-05
-1.68171e-15
1.12235e-05
-3.08042e-15
1.12235e-05
-4.54366e-15
1.12235e-05
-6.83624e-15
1.12235e-05
-1.01925e-14
1.12235e-05
-1.51836e-14
1.12235e-05
-2.26645e-14
1.12235e-05
-3.39144e-14
1.12235e-05
-5.08551e-14
1.12235e-05
-7.63807e-14
1.12235e-05
-1.1485e-13
1.12235e-05
-1.72819e-13
1.12235e-05
-2.60138e-13
1.12235e-05
-3.9156e-13
1.12235e-05
-5.89152e-13
1.12235e-05
-8.86016e-13
1.12235e-05
-1.33255e-12
1.12235e-05
-2.00824e-12
1.12235e-05
-3.04571e-12
1.12234e-05
-4.68097e-12
1.12234e-05
-7.35656e-12
1.12234e-05
-1.19276e-11
1.12234e-05
-2.00615e-11
1.12233e-05
-3.49894e-11
1.12232e-05
-6.28738e-11
1.1223e-05
-1.15208e-10
1.12226e-05
-2.12871e-10
1.12219e-05
-3.92785e-10
1.12207e-05
-7.18657e-10
1.12185e-05
-1.29858e-09
1.12146e-05
-2.31543e-09
1.1208e-05
-4.08534e-09
1.11965e-05
-7.1855e-09
1.11761e-05
-1.27925e-08
1.11378e-05
-2.35203e-08
1.10614e-05
-4.54538e-08
1.09093e-05
-9.00327e-08
1.06051e-05
-1.81486e-07
1.00375e-05
-3.65162e-07
9.33434e-06
-6.32633e-07
9.24308e-06
-7.98755e-07
9.20889e-06
-8.05005e-07
9.12787e-06
-7.92274e-07
9.32519e-06
-7.22077e-07
9.52621e-06
-6.84253e-07
9.60692e-06
-6.54009e-07
9.6604e-06
-6.25835e-07
9.69919e-06
-6.08644e-07
9.70295e-06
-5.91588e-07
9.68136e-06
-5.60281e-07
9.66628e-06
-5.29874e-07
9.65115e-06
-4.99611e-07
9.64995e-06
-4.67349e-07
9.6144e-06
-4.31e-07
9.61646e-06
-3.85422e-07
9.60298e-06
-3.23343e-07
9.52748e-06
-2.32715e-07
9.44688e-06
-1.05853e-07
7.22394e-08
9.36525e-06
1.12235e-05
-4.65259e-16
1.12235e-05
-1.74111e-15
1.12235e-05
-3.17681e-15
1.12235e-05
-4.6909e-15
1.12235e-05
-7.06435e-15
1.12235e-05
-1.05567e-14
1.12235e-05
-1.57611e-14
1.12235e-05
-2.35708e-14
1.12235e-05
-3.53281e-14
1.12235e-05
-5.30527e-14
1.12235e-05
-7.97887e-14
1.12235e-05
-1.20124e-13
1.12235e-05
-1.80963e-13
1.12235e-05
-2.72679e-13
1.12235e-05
-4.10808e-13
1.12235e-05
-6.18588e-13
1.12235e-05
-9.30916e-13
1.12235e-05
-1.40112e-12
1.12235e-05
-2.11391e-12
1.12234e-05
-3.21204e-12
1.12234e-05
-4.95179e-12
1.12234e-05
-7.81661e-12
1.12234e-05
-1.27426e-11
1.12234e-05
-2.15531e-11
1.12233e-05
-3.777e-11
1.12232e-05
-6.80768e-11
1.1223e-05
-1.24861e-10
1.12225e-05
-2.30478e-10
1.12217e-05
-4.24199e-10
1.12203e-05
-7.73437e-10
1.12177e-05
-1.39231e-09
1.12134e-05
-2.47431e-09
1.12058e-05
-4.35747e-09
1.11927e-05
-7.67194e-09
1.11692e-05
-1.37366e-08
1.11232e-05
-2.5619e-08
1.10332e-05
-4.97834e-08
1.08553e-05
-9.90225e-08
1.04957e-05
-2.00527e-07
9.87556e-06
-3.96631e-07
9.16901e-06
-6.59615e-07
9.18719e-06
-7.39044e-07
9.23904e-06
-7.52869e-07
9.28991e-06
-7.43445e-07
9.34396e-06
-6.87437e-07
9.52446e-06
-6.36795e-07
9.62012e-06
-6.15785e-07
9.66627e-06
-5.9685e-07
9.70511e-06
-5.83995e-07
9.72337e-06
-5.74949e-07
9.70578e-06
-5.591e-07
9.6928e-06
-5.30843e-07
9.69781e-06
-5.04294e-07
9.68355e-06
-4.7796e-07
9.66168e-06
-4.49408e-07
9.65633e-06
-4.14468e-07
9.61365e-06
-3.68947e-07
9.6048e-06
-3.04324e-07
9.53748e-06
-2.11733e-07
-5.09058e-08
9.4518e-06
1.12235e-05
-4.77787e-16
1.12235e-05
-1.78785e-15
1.12235e-05
-3.25023e-15
1.12235e-05
-4.80526e-15
1.12235e-05
-7.24284e-15
1.12235e-05
-1.08423e-14
1.12235e-05
-1.62162e-14
1.12235e-05
-2.42896e-14
1.12235e-05
-3.64561e-14
1.12235e-05
-5.48161e-14
1.12235e-05
-8.25379e-14
1.12235e-05
-1.24399e-13
1.12235e-05
-1.87591e-13
1.12235e-05
-2.82918e-13
1.12235e-05
-4.26561e-13
1.12235e-05
-6.42721e-13
1.12235e-05
-9.67793e-13
1.12235e-05
-1.45761e-12
1.12235e-05
-2.20152e-12
1.12234e-05
-3.35148e-12
1.12234e-05
-5.18259e-12
1.12234e-05
-8.21629e-12
1.12234e-05
-1.34637e-11
1.12234e-05
-2.28912e-11
1.12233e-05
-4.02843e-11
1.12231e-05
-7.27905e-11
1.12229e-05
-1.33579e-10
1.12224e-05
-2.46263e-10
1.12215e-05
-4.52082e-10
1.12198e-05
-8.21514e-10
1.1217e-05
-1.47371e-09
1.1212e-05
-2.61141e-09
1.12035e-05
-4.59285e-09
1.11887e-05
-8.10207e-09
1.11616e-05
-1.4601e-08
1.11085e-05
-2.75745e-08
1.10033e-05
-5.38843e-08
1.07939e-05
-1.07615e-07
1.03752e-05
-2.1869e-07
9.71746e-06
-4.21471e-07
9.05683e-06
-6.71253e-07
9.14792e-06
-6.73292e-07
9.23602e-06
-6.98922e-07