/*--------------------------------*- C++ -*----------------------------------*\
  =========                 |
  \\      /  F ield         | OpenFOAM: The Open Source CFD Toolbox
   \\    /   O peration     | Website:  https://openfoam.org
    \\  /    A nd           | Version:  9
     \\/     M anipulation  |
\*---------------------------------------------------------------------------*/
FoamFile
{
    format      ascii;
    class       volScalarField;
    location    "0.006";
    object      rho;
}
// * * * * * * * * * * * * * * * * * * * * * * * * * * * * * * * * * * * * * //

dimensions      [1 -3 0 0 0 0 0];

internalField   nonuniform List<scalar> 
36400
(
2.37139e-05
2.37139e-05
2.37139e-05
2.37139e-05
2.37139e-05
2.37139e-05
2.37139e-05
2.37139e-05
2.37139e-05
2.37139e-05
2.37139e-05
2.37139e-05
2.37139e-05
2.37139e-05
2.37139e-05
2.37139e-05
2.37139e-05
2.37139e-05
2.37139e-05
2.37139e-05
2.37139e-05
2.37139e-05
2.37139e-05
2.37139e-05
2.37139e-05
2.37139e-05
2.37139e-05
2.3714e-05
2.3714e-05
2.3714e-05
2.37141e-05
2.37142e-05
2.37145e-05
2.37151e-05
2.37162e-05
2.37182e-05
2.37219e-05
2.37285e-05
2.37401e-05
2.376e-05
2.37952e-05
2.38627e-05
2.39976e-05
2.4267e-05
2.48055e-05
2.58896e-05
2.77665e-05
2.96901e-05
2.96511e-05
2.94216e-05
2.91945e-05
2.87534e-05
2.84898e-05
2.83299e-05
2.81925e-05
2.80634e-05
2.79407e-05
2.78418e-05
2.77281e-05
2.80266e-05
2.37139e-05
2.37139e-05
2.37139e-05
2.37139e-05
2.37139e-05
2.37139e-05
2.37139e-05
2.37139e-05
2.37139e-05
2.37139e-05
2.37139e-05
2.37139e-05
2.37139e-05
2.37139e-05
2.37139e-05
2.37139e-05
2.37139e-05
2.37139e-05
2.37139e-05
2.37139e-05
2.37139e-05
2.37139e-05
2.37139e-05
2.37139e-05
2.37139e-05
2.37139e-05
2.37139e-05
2.3714e-05
2.3714e-05
2.3714e-05
2.37141e-05
2.37143e-05
2.37147e-05
2.37154e-05
2.37167e-05
2.37192e-05
2.37237e-05
2.37315e-05
2.37452e-05
2.3769e-05
2.38117e-05
2.38962e-05
2.40651e-05
2.4403e-05
2.50802e-05
2.64232e-05
2.83811e-05
2.93116e-05
2.92307e-05
2.9028e-05
2.87729e-05
2.85183e-05
2.83063e-05
2.81647e-05
2.80488e-05
2.79413e-05
2.78283e-05
2.77189e-05
2.75989e-05
2.76334e-05
2.37139e-05
2.37139e-05
2.37139e-05
2.37139e-05
2.37139e-05
2.37139e-05
2.37139e-05
2.37139e-05
2.37139e-05
2.37139e-05
2.37139e-05
2.37139e-05
2.37139e-05
2.37139e-05
2.37139e-05
2.37139e-05
2.37139e-05
2.37139e-05
2.37139e-05
2.37139e-05
2.37139e-05
2.37139e-05
2.37139e-05
2.37139e-05
2.37139e-05
2.37139e-05
2.37139e-05
2.3714e-05
2.3714e-05
2.37141e-05
2.37142e-05
2.37144e-05
2.37149e-05
2.37158e-05
2.37175e-05
2.37205e-05
2.37259e-05
2.37354e-05
2.37519e-05
2.37808e-05
2.38337e-05
2.39395e-05
2.41509e-05
2.45732e-05
2.54245e-05
2.68988e-05
2.85388e-05
2.88576e-05
2.88267e-05
2.87538e-05
2.85815e-05
2.84192e-05
2.82433e-05
2.80885e-05
2.79655e-05
2.78571e-05
2.7748e-05
2.76369e-05
2.7508e-05
2.74552e-05
2.37139e-05
2.37139e-05
2.37139e-05
2.37139e-05
2.37139e-05
2.37139e-05
2.37139e-05
2.37139e-05
2.37139e-05
2.37139e-05
2.37139e-05
2.37139e-05
2.37139e-05
2.37139e-05
2.37139e-05
2.37139e-05
2.37139e-05
2.37139e-05
2.37139e-05
2.37139e-05
2.37139e-05
2.37139e-05
2.37139e-05
2.37139e-05
2.37139e-05
2.37139e-05
2.3714e-05
2.3714e-05
2.3714e-05
2.37141e-05
2.37143e-05
2.37146e-05
2.37152e-05
2.37163e-05
2.37184e-05
2.37222e-05
2.37289e-05
2.37406e-05
2.37609e-05
2.37968e-05
2.38648e-05
2.40005e-05
2.42718e-05
2.48147e-05
2.58843e-05
2.74343e-05
2.84926e-05
2.84884e-05
2.84771e-05
2.8452e-05
2.83988e-05
2.82937e-05
2.81627e-05
2.80315e-05
2.79029e-05
2.77897e-05
2.76823e-05
2.7575e-05
2.74466e-05
2.73519e-05
2.37139e-05
2.37139e-05
2.37139e-05
2.37139e-05
2.37139e-05
2.37139e-05
2.37139e-05
2.37139e-05
2.37139e-05
2.37139e-05
2.37139e-05
2.37139e-05
2.37139e-05
2.37139e-05
2.37139e-05
2.37139e-05
2.37139e-05
2.37139e-05
2.37139e-05
2.37139e-05
2.37139e-05
2.37139e-05
2.37139e-05
2.37139e-05
2.37139e-05
2.37139e-05
2.3714e-05
2.3714e-05
2.3714e-05
2.37142e-05
2.37144e-05
2.37148e-05
2.37156e-05
2.3717e-05
2.37197e-05
2.37244e-05
2.37327e-05
2.37472e-05
2.37723e-05
2.38177e-05
2.39058e-05
2.40819e-05
2.44334e-05
2.51421e-05
2.6373e-05
2.78464e-05
2.82229e-05
2.82075e-05
2.81897e-05
2.81698e-05
2.81551e-05
2.81293e-05
2.8075e-05
2.80165e-05
2.79105e-05
2.77859e-05
2.7668e-05
2.7556e-05
2.74245e-05
2.73131e-05
2.37139e-05
2.37139e-05
2.37139e-05
2.37139e-05
2.37139e-05
2.37139e-05
2.37139e-05
2.37139e-05
2.37139e-05
2.37139e-05
2.37139e-05
2.37139e-05
2.37139e-05
2.37139e-05
2.37139e-05
2.37139e-05
2.37139e-05
2.37139e-05
2.37139e-05
2.37139e-05
2.37139e-05
2.37139e-05
2.37139e-05
2.37139e-05
2.37139e-05
2.3714e-05
2.3714e-05
2.3714e-05
2.37141e-05
2.37142e-05
2.37145e-05
2.3715e-05
2.37161e-05
2.37179e-05
2.37212e-05
2.37271e-05
2.37374e-05
2.37553e-05
2.37867e-05
2.38445e-05
2.39594e-05
2.41887e-05
2.46472e-05
2.55522e-05
2.68704e-05
2.79361e-05
2.79618e-05
2.79565e-05
2.79465e-05
2.79423e-05
2.79325e-05
2.79223e-05
2.79108e-05
2.78913e-05
2.78532e-05
2.77998e-05
2.77027e-05
2.75964e-05
2.74298e-05
2.72974e-05
2.37139e-05
2.37139e-05
2.37139e-05
2.37139e-05
2.37139e-05
2.37139e-05
2.37139e-05
2.37139e-05
2.37139e-05
2.37139e-05
2.37139e-05
2.37139e-05
2.37139e-05
2.37139e-05
2.37139e-05
2.37139e-05
2.37139e-05
2.37139e-05
2.37139e-05
2.37139e-05
2.37139e-05
2.37139e-05
2.37139e-05
2.37139e-05
2.37139e-05
2.3714e-05
2.3714e-05
2.3714e-05
2.37141e-05
2.37143e-05
2.37147e-05
2.37154e-05
2.37166e-05
2.3719e-05
2.37231e-05
2.37304e-05
2.37431e-05
2.37652e-05
2.38046e-05
2.38793e-05
2.40285e-05
2.43263e-05
2.49254e-05
2.60029e-05
2.7376e-05
2.77998e-05
2.77832e-05
2.77593e-05
2.77371e-05
2.77362e-05
2.77378e-05
2.77405e-05
2.77386e-05
2.77352e-05
2.77268e-05
2.77163e-05
2.76924e-05
2.76326e-05
2.75009e-05
2.73231e-05
2.37139e-05
2.37139e-05
2.37139e-05
2.37139e-05
2.37139e-05
2.37139e-05
2.37139e-05
2.37139e-05
2.37139e-05
2.37139e-05
2.37139e-05
2.37139e-05
2.37139e-05
2.37139e-05
2.37139e-05
2.37139e-05
2.37139e-05
2.37139e-05
2.37139e-05
2.37139e-05
2.37139e-05
2.37139e-05
2.37139e-05
2.37139e-05
2.37139e-05
2.3714e-05
2.3714e-05
2.37141e-05
2.37142e-05
2.37144e-05
2.37149e-05
2.37158e-05
2.37174e-05
2.37203e-05
2.37254e-05
2.37344e-05
2.375e-05
2.37773e-05
2.38268e-05
2.39236e-05
2.41169e-05
2.45033e-05
2.52727e-05
2.64617e-05
2.7617e-05
2.76306e-05
2.76176e-05
2.75819e-05
2.75463e-05
2.75474e-05
2.75488e-05
2.75531e-05
2.75653e-05
2.7591e-05
2.76339e-05
2.76317e-05
2.76233e-05
2.75965e-05
2.75222e-05
2.73795e-05
2.37139e-05
2.37139e-05
2.37139e-05
2.37139e-05
2.37139e-05
2.37139e-05
2.37139e-05
2.37139e-05
2.37139e-05
2.37139e-05
2.37139e-05
2.37139e-05
2.37139e-05
2.37139e-05
2.37139e-05
2.37139e-05
2.37139e-05
2.37139e-05
2.37139e-05
2.37139e-05
2.37139e-05
2.37139e-05
2.37139e-05
2.37139e-05
2.3714e-05
2.3714e-05
2.3714e-05
2.37141e-05
2.37143e-05
2.37146e-05
2.37152e-05
2.37163e-05
2.37182e-05
2.37218e-05
2.37281e-05
2.37391e-05
2.37581e-05
2.37918e-05
2.38544e-05
2.3979e-05
2.42279e-05
2.47266e-05
2.56717e-05
2.69316e-05
2.75705e-05
2.75515e-05
2.75104e-05
2.74076e-05
2.73522e-05
2.73501e-05
2.73524e-05
2.73743e-05
2.74005e-05
2.74438e-05
2.75358e-05
2.75588e-05
2.75558e-05
2.7542e-05
2.74993e-05
2.74015e-05
2.37139e-05
2.37139e-05
2.37139e-05
2.37139e-05
2.37139e-05
2.37139e-05
2.37139e-05
2.37139e-05
2.37139e-05
2.37139e-05
2.37139e-05
2.37139e-05
2.37139e-05
2.37139e-05
2.37139e-05
2.37139e-05
2.37139e-05
2.37139e-05
2.37139e-05
2.37139e-05
2.37139e-05
2.37139e-05
2.37139e-05
2.37139e-05
2.3714e-05
2.3714e-05
2.3714e-05
2.37142e-05
2.37144e-05
2.37147e-05
2.37155e-05
2.37168e-05
2.37193e-05
2.37237e-05
2.37313e-05
2.37446e-05
2.37677e-05
2.38093e-05
2.38891e-05
2.40482e-05
2.4366e-05
2.50029e-05
2.60865e-05
2.73584e-05
2.74705e-05
2.74425e-05
2.73777e-05
2.72682e-05
2.71759e-05
2.71724e-05
2.71744e-05
2.7186e-05
2.72221e-05
2.7298e-05
2.74142e-05
2.751e-05
2.75088e-05
2.74992e-05
2.74586e-05
2.73833e-05
2.37139e-05
2.37139e-05
2.37139e-05
2.37139e-05
2.37139e-05
2.37139e-05
2.37139e-05
2.37139e-05
2.37139e-05
2.37139e-05
2.37139e-05
2.37139e-05
2.37139e-05
2.37139e-05
2.37139e-05
2.37139e-05
2.37139e-05
2.37139e-05
2.37139e-05
2.37139e-05
2.37139e-05
2.37139e-05
2.37139e-05
2.3714e-05
2.3714e-05
2.3714e-05
2.37141e-05
2.37142e-05
2.37145e-05
2.37149e-05
2.37159e-05
2.37175e-05
2.37205e-05
2.37258e-05
2.3735e-05
2.3751e-05
2.37791e-05
2.38305e-05
2.39315e-05
2.41332e-05
2.45365e-05
2.53322e-05
2.65105e-05
2.74815e-05
2.74601e-05
2.73836e-05
2.72463e-05
2.70856e-05
2.70093e-05
2.70096e-05
2.70129e-05
2.70275e-05
2.70611e-05
2.7126e-05
2.72633e-05
2.74361e-05
2.74598e-05
2.74549e-05
2.74352e-05
2.73827e-05
2.37139e-05
2.37139e-05
2.37139e-05
2.37139e-05
2.37139e-05
2.37139e-05
2.37139e-05
2.37139e-05
2.37139e-05
2.37139e-05
2.37139e-05
2.37139e-05
2.37139e-05
2.37139e-05
2.37139e-05
2.37139e-05
2.37139e-05
2.37139e-05
2.37139e-05
2.37139e-05
2.37139e-05
2.37139e-05
2.37139e-05
2.3714e-05
2.3714e-05
2.3714e-05
2.37141e-05
2.37143e-05
2.37146e-05
2.37152e-05
2.37163e-05
2.37183e-05
2.37219e-05
2.37282e-05
2.37392e-05
2.37584e-05
2.37924e-05
2.38559e-05
2.39827e-05
2.4236e-05
2.47436e-05
2.56953e-05
2.69364e-05
2.74452e-05
2.7411e-05
2.73309e-05
2.71463e-05
2.69245e-05
2.68555e-05
2.68554e-05
2.68648e-05
2.68782e-05
2.6905e-05
2.69645e-05
2.70916e-05
2.73003e-05
2.74254e-05
2.74219e-05
2.74052e-05
2.73633e-05
2.37139e-05
2.37139e-05
2.37139e-05
2.37139e-05
2.37139e-05
2.37139e-05
2.37139e-05
2.37139e-05
2.37139e-05
2.37139e-05
2.37139e-05
2.37139e-05
2.37139e-05
2.37139e-05
2.37139e-05
2.37139e-05
2.37139e-05
2.37139e-05
2.37139e-05
2.37139e-05
2.37139e-05
2.37139e-05
2.37139e-05
2.3714e-05
2.3714e-05
2.3714e-05
2.37142e-05
2.37144e-05
2.37147e-05
2.37155e-05
2.37168e-05
2.37192e-05
2.37235e-05
2.3731e-05
2.37441e-05
2.37668e-05
2.38079e-05
2.38868e-05
2.40445e-05
2.43594e-05
2.49908e-05
2.60683e-05
2.73212e-05
2.73846e-05
2.73444e-05
2.72426e-05
2.70463e-05
2.68019e-05
2.67165e-05
2.67136e-05
2.67228e-05
2.67386e-05
2.67629e-05
2.68126e-05
2.6918e-05
2.71299e-05
2.73552e-05
2.73718e-05
2.73661e-05
2.73452e-05
2.37139e-05
2.37139e-05
2.37139e-05
2.37139e-05
2.37139e-05
2.37139e-05
2.37139e-05
2.37139e-05
2.37139e-05
2.37139e-05
2.37139e-05
2.37139e-05
2.37139e-05
2.37139e-05
2.37139e-05
2.37139e-05
2.37139e-05
2.37139e-05
2.37139e-05
2.37139e-05
2.37139e-05
2.37139e-05
2.3714e-05
2.3714e-05
2.3714e-05
2.37141e-05
2.37142e-05
2.37144e-05
2.37149e-05
2.37158e-05
2.37174e-05
2.37203e-05
2.37253e-05
2.37342e-05
2.37495e-05
2.37765e-05
2.3826e-05
2.39233e-05
2.41177e-05
2.45063e-05
2.52769e-05
2.6446e-05
2.7456e-05
2.7429e-05
2.73276e-05
2.71351e-05
2.69086e-05
2.66995e-05
2.65948e-05
2.6592e-05
2.65974e-05
2.66107e-05
2.66318e-05
2.6676e-05
2.67713e-05
2.69173e-05
2.71805e-05
2.7341e-05
2.73405e-05
2.73189e-05
2.37139e-05
2.37139e-05
2.37139e-05
2.37139e-05
2.37139e-05
2.37139e-05
2.37139e-05
2.37139e-05
2.37139e-05
2.37139e-05
2.37139e-05
2.37139e-05
2.37139e-05
2.37139e-05
2.37139e-05
2.37139e-05
2.37139e-05
2.37139e-05
2.37139e-05
2.37139e-05
2.37139e-05
2.37139e-05
2.3714e-05
2.3714e-05
2.3714e-05
2.37141e-05
2.37143e-05
2.37146e-05
2.37151e-05
2.37162e-05
2.3718e-05
2.37214e-05
2.37274e-05
2.37377e-05
2.37557e-05
2.37875e-05
2.38471e-05
2.39659e-05
2.42033e-05
2.46786e-05
2.5589e-05
2.68246e-05
2.74614e-05
2.74183e-05
2.73109e-05
2.70659e-05
2.67819e-05
2.66009e-05
2.64923e-05
2.64854e-05
2.64862e-05
2.64913e-05
2.65071e-05
2.65415e-05
2.6612e-05
2.67443e-05
2.69509e-05
2.72121e-05
2.73005e-05
2.72965e-05
2.37139e-05
2.37139e-05
2.37139e-05
2.37139e-05
2.37139e-05
2.37139e-05
2.37139e-05
2.37139e-05
2.37139e-05
2.37139e-05
2.37139e-05
2.37139e-05
2.37139e-05
2.37139e-05
2.37139e-05
2.37139e-05
2.37139e-05
2.37139e-05
2.37139e-05
2.37139e-05
2.37139e-05
2.37139e-05
2.3714e-05
2.3714e-05
2.3714e-05
2.37141e-05
2.37143e-05
2.37147e-05
2.37153e-05
2.37166e-05
2.37188e-05
2.37227e-05
2.37296e-05
2.37416e-05
2.37625e-05
2.38e-05
2.38719e-05
2.40153e-05
2.43018e-05
2.48776e-05
2.59112e-05
2.71743e-05
2.74185e-05
2.73737e-05
2.72633e-05
2.70173e-05
2.66909e-05
2.65112e-05
2.64095e-05
2.63852e-05
2.63857e-05
2.63887e-05
2.64005e-05
2.6425e-05
2.64756e-05
2.65701e-05
2.67341e-05
2.69665e-05
2.72075e-05
2.72457e-05
2.37139e-05
2.37139e-05
2.37139e-05
2.37139e-05
2.37139e-05
2.37139e-05
2.37139e-05
2.37139e-05
2.37139e-05
2.37139e-05
2.37139e-05
2.37139e-05
2.37139e-05
2.37139e-05
2.37139e-05
2.37139e-05
2.37139e-05
2.37139e-05
2.37139e-05
2.37139e-05
2.37139e-05
2.37139e-05
2.3714e-05
2.3714e-05
2.37141e-05
2.37142e-05
2.37144e-05
2.37148e-05
2.37156e-05
2.3717e-05
2.37196e-05
2.37242e-05
2.37321e-05
2.37459e-05
2.377e-05
2.3814e-05
2.39001e-05
2.40719e-05
2.44153e-05
2.51023e-05
2.62323e-05
2.7433e-05
2.74122e-05
2.73263e-05
2.71988e-05
2.69452e-05
2.6629e-05
2.64395e-05
2.63379e-05
2.62941e-05
2.62942e-05
2.62948e-05
2.63027e-05
2.63224e-05
2.63541e-05
2.64155e-05
2.65245e-05
2.67213e-05
2.69868e-05
2.71743e-05
2.37139e-05
2.37139e-05
2.37139e-05
2.37139e-05
2.37139e-05
2.37139e-05
2.37139e-05
2.37139e-05
2.37139e-05
2.37139e-05
2.37139e-05
2.37139e-05
2.37139e-05
2.37139e-05
2.37139e-05
2.37139e-05
2.37139e-05
2.37139e-05
2.37139e-05
2.37139e-05
2.37139e-05
2.3714e-05
2.3714e-05
2.3714e-05
2.37141e-05
2.37142e-05
2.37145e-05
2.3715e-05
2.37159e-05
2.37175e-05
2.37205e-05
2.37257e-05
2.37348e-05
2.37505e-05
2.37783e-05
2.38298e-05
2.39318e-05
2.41357e-05
2.45432e-05
2.53486e-05
2.65525e-05
2.75057e-05
2.74653e-05
2.73504e-05
2.71001e-05
2.68494e-05
2.65789e-05
2.63881e-05
2.62808e-05
2.62197e-05
2.62133e-05
2.62137e-05
2.6217e-05
2.6226e-05
2.62483e-05
2.62828e-05
2.6366e-05
2.65084e-05
2.6694e-05
2.69613e-05
2.37139e-05
2.37139e-05
2.37139e-05
2.37139e-05
2.37139e-05
2.37139e-05
2.37139e-05
2.37139e-05
2.37139e-05
2.37139e-05
2.37139e-05
2.37139e-05
2.37139e-05
2.37139e-05
2.37139e-05
2.37139e-05
2.37139e-05
2.37139e-05
2.37139e-05
2.37139e-05
2.37139e-05
2.3714e-05
2.3714e-05
2.3714e-05
2.37141e-05
2.37143e-05
2.37146e-05
2.37151e-05
2.37162e-05
2.37181e-05
2.37214e-05
2.37273e-05
2.37376e-05
2.37555e-05
2.37873e-05
2.38473e-05
2.3967e-05
2.42063e-05
2.46859e-05
2.56064e-05
2.68634e-05
2.75142e-05
2.74658e-05
2.73407e-05
2.70561e-05
2.67609e-05
2.65307e-05
2.63516e-05
2.62384e-05
2.61687e-05
2.61345e-05
2.61339e-05
2.61375e-05
2.61441e-05
2.61561e-05
2.61783e-05
2.6226e-05
2.63028e-05
2.64609e-05
2.6687e-05
2.37139e-05
2.37139e-05
2.37139e-05
2.37139e-05
2.37139e-05
2.37139e-05
2.37139e-05
2.37139e-05
2.37139e-05
2.37139e-05
2.37139e-05
2.37139e-05
2.37139e-05
2.37139e-05
2.37139e-05
2.37139e-05
2.37139e-05
2.37139e-05
2.37139e-05
2.37139e-05
2.37139e-05
2.3714e-05
2.3714e-05
2.3714e-05
2.37141e-05
2.37143e-05
2.37147e-05
2.37153e-05
2.37165e-05
2.37186e-05
2.37224e-05
2.37291e-05
2.37406e-05
2.37608e-05
2.37971e-05
2.38668e-05
2.4006e-05
2.4284e-05
2.48419e-05
2.58658e-05
2.71454e-05
2.74908e-05
2.74408e-05
2.73131e-05
2.70287e-05
2.66947e-05
2.64846e-05
2.63235e-05
2.62084e-05
2.61336e-05
2.60803e-05
2.60621e-05
2.60621e-05
2.60629e-05
2.60724e-05
2.6088e-05
2.61102e-05
2.61607e-05
2.62493e-05
2.64244e-05
2.37139e-05
2.37139e-05
2.37139e-05
2.37139e-05
2.37139e-05
2.37139e-05
2.37139e-05
2.37139e-05
2.37139e-05
2.37139e-05
2.37139e-05
2.37139e-05
2.37139e-05
2.37139e-05
2.37139e-05
2.37139e-05
2.37139e-05
2.37139e-05
2.37139e-05
2.37139e-05
2.37139e-05
2.3714e-05
2.3714e-05
2.37141e-05
2.37142e-05
2.37144e-05
2.37148e-05
2.37155e-05
2.37168e-05
2.37192e-05
2.37235e-05
2.37309e-05
2.37438e-05
2.37664e-05
2.38075e-05
2.38878e-05
2.40481e-05
2.43683e-05
2.50106e-05
2.61197e-05
2.73843e-05
2.74534e-05
2.74051e-05
2.72759e-05
2.69974e-05
2.66489e-05
2.64441e-05
2.62996e-05
2.61872e-05
2.61091e-05
2.60494e-05
2.60059e-05
2.59919e-05
2.59921e-05
2.59937e-05
2.60042e-05
2.60178e-05
2.60424e-05
2.60975e-05
2.62004e-05
2.37139e-05
2.37139e-05
2.37139e-05
2.37139e-05
2.37139e-05
2.37139e-05
2.37139e-05
2.37139e-05
2.37139e-05
2.37139e-05
2.37139e-05
2.37139e-05
2.37139e-05
2.37139e-05
2.37139e-05
2.37139e-05
2.37139e-05
2.37139e-05
2.37139e-05
2.37139e-05
2.3714e-05
2.3714e-05
2.3714e-05
2.37141e-05
2.37142e-05
2.37144e-05
2.37149e-05
2.37157e-05
2.37172e-05
2.37199e-05
2.37246e-05
2.37328e-05
2.37471e-05
2.37723e-05
2.38186e-05
2.39102e-05
2.4093e-05
2.44584e-05
2.51887e-05
2.63642e-05
2.75202e-05
2.74951e-05
2.73611e-05
2.72173e-05
2.69507e-05
2.66165e-05
2.64114e-05
2.62786e-05
2.61718e-05
2.60918e-05
2.60294e-05
2.59772e-05
2.59394e-05
2.5923e-05
2.5923e-05
2.59281e-05
2.59344e-05
2.5946e-05
2.59747e-05
2.60296e-05
2.37139e-05
2.37139e-05
2.37139e-05
2.37139e-05
2.37139e-05
2.37139e-05
2.37139e-05
2.37139e-05
2.37139e-05
2.37139e-05
2.37139e-05
2.37139e-05
2.37139e-05
2.37139e-05
2.37139e-05
2.37139e-05
2.37139e-05
2.37139e-05
2.37139e-05
2.37139e-05
2.3714e-05
2.3714e-05
2.3714e-05
2.37141e-05
2.37142e-05
2.37145e-05
2.3715e-05
2.37159e-05
2.37176e-05
2.37205e-05
2.37257e-05
2.37348e-05
2.37505e-05
2.37784e-05
2.38303e-05
2.39337e-05
2.41403e-05
2.45534e-05
2.53712e-05
2.65996e-05
2.75707e-05
2.75246e-05
2.73853e-05
2.7144e-05
2.68893e-05
2.65898e-05
2.63867e-05
2.62603e-05
2.616e-05
2.60796e-05
2.60158e-05
2.59599e-05
2.59134e-05
2.58775e-05
2.58558e-05
2.58576e-05
2.58588e-05
2.58632e-05
2.58736e-05
2.5902e-05
2.37139e-05
2.37139e-05
2.37139e-05
2.37139e-05
2.37139e-05
2.37139e-05
2.37139e-05
2.37139e-05
2.37139e-05
2.37139e-05
2.37139e-05
2.37139e-05
2.37139e-05
2.37139e-05
2.37139e-05
2.37139e-05
2.37139e-05
2.37139e-05
2.37139e-05
2.37139e-05
2.3714e-05
2.3714e-05
2.3714e-05
2.37141e-05
2.37143e-05
2.37146e-05
2.37151e-05
2.37161e-05
2.37179e-05
2.37212e-05
2.37269e-05
2.37367e-05
2.37539e-05
2.37846e-05
2.38425e-05
2.3958e-05
2.41891e-05
2.46519e-05
2.55523e-05
2.68199e-05
2.75853e-05
2.75357e-05
2.7404e-05
2.70881e-05
2.68275e-05
2.65643e-05
2.63684e-05
2.6245e-05
2.61505e-05
2.60709e-05
2.60063e-05
2.59488e-05
2.58982e-05
2.5855e-05
2.58197e-05
2.57955e-05
2.57887e-05
2.57885e-05
2.57924e-05
2.58032e-05
2.37139e-05
2.37139e-05
2.37139e-05
2.37139e-05
2.37139e-05
2.37139e-05
2.37139e-05
2.37139e-05
2.37139e-05
2.37139e-05
2.37139e-05
2.37139e-05
2.37139e-05
2.37139e-05
2.37139e-05
2.37139e-05
2.37139e-05
2.37139e-05
2.37139e-05
2.37139e-05
2.3714e-05
2.3714e-05
2.3714e-05
2.37141e-05
2.37143e-05
2.37146e-05
2.37152e-05
2.37163e-05
2.37183e-05
2.37218e-05
2.3728e-05
2.37387e-05
2.37573e-05
2.37908e-05
2.3855e-05
2.39831e-05
2.4239e-05
2.47517e-05
2.57269e-05
2.70192e-05
2.7583e-05
2.75283e-05
2.73881e-05
2.70731e-05
2.67738e-05
2.6539e-05
2.63545e-05
2.62327e-05
2.61427e-05
2.60647e-05
2.59997e-05
2.59415e-05
2.58886e-05
2.58417e-05
2.58006e-05
2.57666e-05
2.57412e-05
2.57256e-05
2.57266e-05
2.57252e-05
2.37139e-05
2.37139e-05
2.37139e-05
2.37139e-05
2.37139e-05
2.37139e-05
2.37139e-05
2.37139e-05
2.37139e-05
2.37139e-05
2.37139e-05
2.37139e-05
2.37139e-05
2.37139e-05
2.37139e-05
2.37139e-05
2.37139e-05
2.37139e-05
2.37139e-05
2.37139e-05
2.3714e-05
2.3714e-05
2.3714e-05
2.37141e-05
2.37143e-05
2.37147e-05
2.37153e-05
2.37165e-05
2.37187e-05
2.37225e-05
2.37291e-05
2.37406e-05
2.37607e-05
2.37971e-05
2.38674e-05
2.4008e-05
2.42887e-05
2.48521e-05
2.58916e-05
2.71938e-05
2.75688e-05
2.75126e-05
2.73716e-05
2.70579e-05
2.67317e-05
2.65147e-05
2.63432e-05
2.62231e-05
2.61363e-05
2.60601e-05
2.5995e-05
2.59366e-05
2.58826e-05
2.58337e-05
2.57895e-05
2.57507e-05
2.57181e-05
2.56929e-05
2.56757e-05
2.56684e-05
2.37139e-05
2.37139e-05
2.37139e-05
2.37139e-05
2.37139e-05
2.37139e-05
2.37139e-05
2.37139e-05
2.37139e-05
2.37139e-05
2.37139e-05
2.37139e-05
2.37139e-05
2.37139e-05
2.37139e-05
2.37139e-05
2.37139e-05
2.37139e-05
2.37139e-05
2.3714e-05
2.3714e-05
2.3714e-05
2.37141e-05
2.37142e-05
2.37144e-05
2.37147e-05
2.37154e-05
2.37167e-05
2.3719e-05
2.37231e-05
2.37302e-05
2.37424e-05
2.3764e-05
2.38032e-05
2.38796e-05
2.40324e-05
2.43376e-05
2.49506e-05
2.60441e-05
2.73415e-05
2.75488e-05
2.74943e-05
2.7353e-05
2.70412e-05
2.67001e-05
2.64927e-05
2.63335e-05
2.62157e-05
2.6131e-05
2.60568e-05
2.59918e-05
2.59334e-05
2.58789e-05
2.58289e-05
2.5783e-05
2.57415e-05
2.57051e-05
2.56743e-05
2.56503e-05
2.56329e-05
2.37139e-05
2.37139e-05
2.37139e-05
2.37139e-05
2.37139e-05
2.37139e-05
2.37139e-05
2.37139e-05
2.37139e-05
2.37139e-05
2.37139e-05
2.37139e-05
2.37139e-05
2.37139e-05
2.37139e-05
2.37139e-05
2.37139e-05
2.37139e-05
2.37139e-05
2.3714e-05
2.3714e-05
2.3714e-05
2.37141e-05
2.37142e-05
2.37144e-05
2.37148e-05
2.37155e-05
2.37169e-05
2.37193e-05
2.37237e-05
2.37312e-05
2.37442e-05
2.3767e-05
2.3809e-05
2.38914e-05
2.40559e-05
2.43846e-05
2.50447e-05
2.61822e-05
2.74622e-05
2.75271e-05
2.74758e-05
2.73331e-05
2.7024e-05
2.66765e-05
2.64737e-05
2.6325e-05
2.62101e-05
2.61267e-05
2.60543e-05
2.59896e-05
2.59314e-05
2.58767e-05
2.5826e-05
2.5779e-05
2.57361e-05
2.56975e-05
2.56636e-05
2.56353e-05
2.56124e-05
2.37139e-05
2.37139e-05
2.37139e-05
2.37139e-05
2.37139e-05
2.37139e-05
2.37139e-05
2.37139e-05
2.37139e-05
2.37139e-05
2.37139e-05
2.37139e-05
2.37139e-05
2.37139e-05
2.37139e-05
2.37139e-05
2.37139e-05
2.37139e-05
2.37139e-05
2.3714e-05
2.3714e-05
2.3714e-05
2.37141e-05
2.37142e-05
2.37144e-05
2.37148e-05
2.37156e-05
2.37171e-05
2.37197e-05
2.37242e-05
2.37321e-05
2.37458e-05
2.37699e-05
2.38145e-05
2.39024e-05
2.4078e-05
2.44288e-05
2.51324e-05
2.63047e-05
2.75482e-05
2.75275e-05
2.74511e-05
2.73105e-05
2.70061e-05
2.66589e-05
2.6458e-05
2.63175e-05
2.62057e-05
2.61233e-05
2.60524e-05
2.59881e-05
2.59301e-05
2.58754e-05
2.58245e-05
2.57771e-05
2.57332e-05
2.56933e-05
2.56576e-05
2.56264e-05
2.56004e-05
2.37139e-05
2.37139e-05
2.37139e-05
2.37139e-05
2.37139e-05
2.37139e-05
2.37139e-05
2.37139e-05
2.37139e-05
2.37139e-05
2.37139e-05
2.37139e-05
2.37139e-05
2.37139e-05
2.37139e-05
2.37139e-05
2.37139e-05
2.37139e-05
2.37139e-05
2.3714e-05
2.3714e-05
2.3714e-05
2.37141e-05
2.37142e-05
2.37144e-05
2.37149e-05
2.37157e-05
2.37172e-05
2.37199e-05
2.37247e-05
2.37329e-05
2.37472e-05
2.37725e-05
2.38194e-05
2.39123e-05
2.40981e-05
2.44691e-05
2.52115e-05
2.64113e-05
2.75922e-05
2.75613e-05
2.74292e-05
2.7279e-05
2.69868e-05
2.66455e-05
2.64454e-05
2.6311e-05
2.62022e-05
2.61206e-05
2.6051e-05
2.59872e-05
2.59294e-05
2.58749e-05
2.58237e-05
2.5776e-05
2.57315e-05
2.56908e-05
2.56539e-05
2.56211e-05
2.5593e-05
2.37139e-05
2.37139e-05
2.37139e-05
2.37139e-05
2.37139e-05
2.37139e-05
2.37139e-05
2.37139e-05
2.37139e-05
2.37139e-05
2.37139e-05
2.37139e-05
2.37139e-05
2.37139e-05
2.37139e-05
2.37139e-05
2.37139e-05
2.37139e-05
2.37139e-05
2.3714e-05
2.3714e-05
2.3714e-05
2.37141e-05
2.37142e-05
2.37145e-05
2.37149e-05
2.37158e-05
2.37174e-05
2.37202e-05
2.37251e-05
2.37336e-05
2.37485e-05
2.37748e-05
2.38237e-05
2.39211e-05
2.41156e-05
2.45044e-05
2.52801e-05
2.65013e-05
2.76186e-05
2.75867e-05
2.74219e-05
2.725e-05
2.69663e-05
2.66351e-05
2.64356e-05
2.63056e-05
2.61996e-05
2.61186e-05
2.605e-05
2.59866e-05
2.59291e-05
2.58747e-05
2.58234e-05
2.57755e-05
2.57307e-05
2.56894e-05
2.56517e-05
2.56178e-05
2.55882e-05
2.37139e-05
2.37139e-05
2.37139e-05
2.37139e-05
2.37139e-05
2.37139e-05
2.37139e-05
2.37139e-05
2.37139e-05
2.37139e-05
2.37139e-05
2.37139e-05
2.37139e-05
2.37139e-05
2.37139e-05
2.37139e-05
2.37139e-05
2.37139e-05
2.37139e-05
2.3714e-05
2.3714e-05
2.3714e-05
2.37141e-05
2.37142e-05
2.37145e-05
2.3715e-05
2.37159e-05
2.37175e-05
2.37204e-05
2.37254e-05
2.37342e-05
2.37495e-05
2.37767e-05
2.38273e-05
2.39284e-05
2.41303e-05
2.45338e-05
2.53367e-05
2.6574e-05
2.7636e-05
2.7595e-05
2.74282e-05
2.72263e-05
2.69483e-05
2.66272e-05
2.64283e-05
2.63012e-05
2.61975e-05
2.6117e-05
2.60492e-05
2.59863e-05
2.59289e-05
2.58746e-05
2.58234e-05
2.57752e-05
2.57302e-05
2.56885e-05
2.56502e-05
2.56156e-05
2.55849e-05
2.37139e-05
2.37139e-05
2.37139e-05
2.37139e-05
2.37139e-05
2.37139e-05
2.37139e-05
2.37139e-05
2.37139e-05
2.37139e-05
2.37139e-05
2.37139e-05
2.37139e-05
2.37139e-05
2.37139e-05
2.37139e-05
2.37139e-05
2.37139e-05
2.37139e-05
2.3714e-05
2.3714e-05
2.3714e-05
2.37141e-05
2.37142e-05
2.37145e-05
2.3715e-05
2.37159e-05
2.37176e-05
2.37205e-05
2.37257e-05
2.37347e-05
2.37503e-05
2.37781e-05
2.38301e-05
2.3934e-05
2.41417e-05
2.45567e-05
2.53801e-05
2.66289e-05
2.76464e-05
2.75983e-05
2.74357e-05
2.72085e-05
2.69341e-05
2.66214e-05
2.64231e-05
2.6298e-05
2.61961e-05
2.61159e-05
2.60487e-05
2.59861e-05
2.59289e-05
2.58748e-05
2.58236e-05
2.57754e-05
2.573e-05
2.5688e-05
2.56492e-05
2.5614e-05
2.55823e-05
2.37139e-05
2.37139e-05
2.37139e-05
2.37139e-05
2.37139e-05
2.37139e-05
2.37139e-05
2.37139e-05
2.37139e-05
2.37139e-05
2.37139e-05
2.37139e-05
2.37139e-05
2.37139e-05
2.37139e-05
2.37139e-05
2.37139e-05
2.37139e-05
2.37139e-05
2.3714e-05
2.3714e-05
2.3714e-05
2.37141e-05
2.37142e-05
2.37145e-05
2.3715e-05
2.37159e-05
2.37176e-05
2.37206e-05
2.37259e-05
2.3735e-05
2.37509e-05
2.37791e-05
2.38321e-05
2.39379e-05
2.41494e-05
2.45723e-05
2.54096e-05
2.66659e-05
2.76522e-05
2.76005e-05
2.74409e-05
2.71969e-05
2.69243e-05
2.66174e-05
2.64197e-05
2.62958e-05
2.6195e-05
2.61152e-05
2.60483e-05
2.5986e-05
2.59289e-05
2.58749e-05
2.58238e-05
2.57756e-05
2.57302e-05
2.56879e-05
2.56488e-05
2.5613e-05
2.55806e-05
2.37139e-05
2.37139e-05
2.37139e-05
2.37139e-05
2.37139e-05
2.37139e-05
2.37139e-05
2.37139e-05
2.37139e-05
2.37139e-05
2.37139e-05
2.37139e-05
2.37139e-05
2.37139e-05
2.37139e-05
2.37139e-05
2.37139e-05
2.37139e-05
2.37139e-05
2.3714e-05
2.3714e-05
2.3714e-05
2.37141e-05
2.37142e-05
2.37145e-05
2.3715e-05
2.3716e-05
2.37177e-05
2.37207e-05
2.3726e-05
2.37352e-05
2.37511e-05
2.37796e-05
2.3833e-05
2.39398e-05
2.41533e-05
2.458e-05
2.5424e-05
2.66836e-05
2.76547e-05
2.76017e-05
2.74432e-05
2.71916e-05
2.69197e-05
2.66155e-05
2.64182e-05
2.62947e-05
2.61945e-05
2.61149e-05
2.60481e-05
2.59859e-05
2.59289e-05
2.5875e-05
2.58239e-05
2.57757e-05
2.57303e-05
2.56879e-05
2.56487e-05
2.56125e-05
2.55798e-05
2.37139e-05
2.37139e-05
2.37139e-05
2.37139e-05
2.37139e-05
2.37139e-05
2.37139e-05
2.37139e-05
2.37139e-05
2.37139e-05
2.37139e-05
2.37139e-05
2.37139e-05
2.37139e-05
2.37139e-05
2.37139e-05
2.37139e-05
2.37139e-05
2.37139e-05
2.3714e-05
2.3714e-05
2.3714e-05
2.37141e-05
2.37142e-05
2.37145e-05
2.3715e-05
2.3716e-05
2.37177e-05
2.37207e-05
2.3726e-05
2.37352e-05
2.37511e-05
2.37796e-05
2.3833e-05
2.39398e-05
2.41533e-05
2.458e-05
2.5424e-05
2.66836e-05
2.76548e-05
2.76017e-05
2.74432e-05
2.71916e-05
2.69197e-05
2.66155e-05
2.64182e-05
2.62947e-05
2.61945e-05
2.61149e-05
2.60481e-05
2.59859e-05
2.59289e-05
2.5875e-05
2.58239e-05
2.57757e-05
2.57303e-05
2.56879e-05
2.56487e-05
2.56125e-05
2.55798e-05
2.37139e-05
2.37139e-05
2.37139e-05
2.37139e-05
2.37139e-05
2.37139e-05
2.37139e-05
2.37139e-05
2.37139e-05
2.37139e-05
2.37139e-05
2.37139e-05
2.37139e-05
2.37139e-05
2.37139e-05
2.37139e-05
2.37139e-05
2.37139e-05
2.37139e-05
2.3714e-05
2.3714e-05
2.3714e-05
2.37141e-05
2.37142e-05
2.37145e-05
2.3715e-05
2.37159e-05
2.37176e-05
2.37206e-05
2.37259e-05
2.3735e-05
2.37509e-05
2.37791e-05
2.38321e-05
2.39379e-05
2.41494e-05
2.45723e-05
2.54096e-05
2.66659e-05
2.76522e-05
2.76005e-05
2.74409e-05
2.71969e-05
2.69242e-05
2.66174e-05
2.64197e-05
2.62958e-05
2.6195e-05
2.61152e-05
2.60483e-05
2.5986e-05
2.59289e-05
2.58749e-05
2.58238e-05
2.57756e-05
2.57302e-05
2.56879e-05
2.56488e-05
2.5613e-05
2.55806e-05
2.37139e-05
2.37139e-05
2.37139e-05
2.37139e-05
2.37139e-05
2.37139e-05
2.37139e-05
2.37139e-05
2.37139e-05
2.37139e-05
2.37139e-05
2.37139e-05
2.37139e-05
2.37139e-05
2.37139e-05
2.37139e-05
2.37139e-05
2.37139e-05
2.37139e-05
2.3714e-05
2.3714e-05
2.3714e-05
2.37141e-05
2.37142e-05
2.37145e-05
2.3715e-05
2.37159e-05
2.37176e-05
2.37205e-05
2.37257e-05
2.37347e-05
2.37503e-05
2.37781e-05
2.38301e-05
2.3934e-05
2.41417e-05
2.45567e-05
2.53801e-05
2.66289e-05
2.76464e-05
2.75983e-05
2.74357e-05
2.72085e-05
2.69341e-05
2.66213e-05
2.64231e-05
2.6298e-05
2.6196e-05
2.61159e-05
2.60486e-05
2.59861e-05
2.59289e-05
2.58748e-05
2.58236e-05
2.57754e-05
2.57301e-05
2.5688e-05
2.56492e-05
2.56141e-05
2.55823e-05
2.37139e-05
2.37139e-05
2.37139e-05
2.37139e-05
2.37139e-05
2.37139e-05
2.37139e-05
2.37139e-05
2.37139e-05
2.37139e-05
2.37139e-05
2.37139e-05
2.37139e-05
2.37139e-05
2.37139e-05
2.37139e-05
2.37139e-05
2.37139e-05
2.37139e-05
2.3714e-05
2.3714e-05
2.3714e-05
2.37141e-05
2.37142e-05
2.37145e-05
2.3715e-05
2.37159e-05
2.37175e-05
2.37204e-05
2.37254e-05
2.37342e-05
2.37495e-05
2.37767e-05
2.38273e-05
2.39284e-05
2.41303e-05
2.45338e-05
2.53367e-05
2.6574e-05
2.7636e-05
2.7595e-05
2.74282e-05
2.72263e-05
2.69483e-05
2.66272e-05
2.64283e-05
2.63012e-05
2.61975e-05
2.6117e-05
2.60492e-05
2.59863e-05
2.59289e-05
2.58747e-05
2.58234e-05
2.57753e-05
2.57302e-05
2.56885e-05
2.56503e-05
2.56157e-05
2.55849e-05
2.37139e-05
2.37139e-05
2.37139e-05
2.37139e-05
2.37139e-05
2.37139e-05
2.37139e-05
2.37139e-05
2.37139e-05
2.37139e-05
2.37139e-05
2.37139e-05
2.37139e-05
2.37139e-05
2.37139e-05
2.37139e-05
2.37139e-05
2.37139e-05
2.37139e-05
2.3714e-05
2.3714e-05
2.3714e-05
2.37141e-05
2.37142e-05
2.37145e-05
2.37149e-05
2.37158e-05
2.37174e-05
2.37202e-05
2.37251e-05
2.37336e-05
2.37485e-05
2.37748e-05
2.38237e-05
2.39211e-05
2.41156e-05
2.45044e-05
2.52801e-05
2.65013e-05
2.76186e-05
2.75867e-05
2.74219e-05
2.725e-05
2.69663e-05
2.66351e-05
2.64355e-05
2.63055e-05
2.61995e-05
2.61185e-05
2.60499e-05
2.59866e-05
2.59291e-05
2.58747e-05
2.58235e-05
2.57755e-05
2.57308e-05
2.56895e-05
2.56517e-05
2.56179e-05
2.55883e-05
2.37139e-05
2.37139e-05
2.37139e-05
2.37139e-05
2.37139e-05
2.37139e-05
2.37139e-05
2.37139e-05
2.37139e-05
2.37139e-05
2.37139e-05
2.37139e-05
2.37139e-05
2.37139e-05
2.37139e-05
2.37139e-05
2.37139e-05
2.37139e-05
2.37139e-05
2.3714e-05
2.3714e-05
2.3714e-05
2.37141e-05
2.37142e-05
2.37144e-05
2.37149e-05
2.37157e-05
2.37172e-05
2.37199e-05
2.37247e-05
2.37329e-05
2.37472e-05
2.37725e-05
2.38194e-05
2.39123e-05
2.4098e-05
2.44691e-05
2.52114e-05
2.64112e-05
2.75923e-05
2.75613e-05
2.74292e-05
2.7279e-05
2.69867e-05
2.66454e-05
2.64453e-05
2.63109e-05
2.62022e-05
2.61206e-05
2.6051e-05
2.59872e-05
2.59294e-05
2.58749e-05
2.58238e-05
2.5776e-05
2.57316e-05
2.56909e-05
2.5654e-05
2.56212e-05
2.55931e-05
2.37139e-05
2.37139e-05
2.37139e-05
2.37139e-05
2.37139e-05
2.37139e-05
2.37139e-05