/*--------------------------------*- C++ -*----------------------------------*\
  =========                 |
  \\      /  F ield         | OpenFOAM: The Open Source CFD Toolbox
   \\    /   O peration     | Website:  https://openfoam.org
    \\  /    A nd           | Version:  9
     \\/     M anipulation  |
\*---------------------------------------------------------------------------*/
FoamFile
{
    format      ascii;
    class       volScalarField;
    location    "0.006";
    object      T;
}
// * * * * * * * * * * * * * * * * * * * * * * * * * * * * * * * * * * * * * //

dimensions      [0 0 0 1 0 0 0];

internalField   nonuniform List<scalar> 
36400
(
293.15
293.15
293.15
293.15
293.15
293.15
293.15
293.15
293.15
293.15
293.15
293.15
293.15
293.15
293.15
293.15
293.15
293.15
293.15
293.15
293.15
293.15
293.15
293.15
293.15
293.15
293.15
293.15
293.15
293.151
293.151
293.152
293.154
293.157
293.164
293.176
293.198
293.237
293.305
293.423
293.638
294.059
294.901
296.575
299.87
306.031
314.73
320.155
318.688
316.926
315.403
313.452
312.245
311.509
310.856
310.216
308.898
308.002
307.292
302.682
293.15
293.15
293.15
293.15
293.15
293.15
293.15
293.15
293.15
293.15
293.15
293.15
293.15
293.15
293.15
293.15
293.15
293.15
293.15
293.15
293.15
293.15
293.15
293.15
293.15
293.15
293.15
293.15
293.15
293.151
293.151
293.153
293.155
293.159
293.167
293.182
293.209
293.256
293.338
293.483
293.75
294.283
295.344
297.448
301.529
308.559
316.477
318.53
318.038
316.891
315.493
314.294
313.21
312.395
311.7
311.042
310.323
309.661
308.87
307.125
293.15
293.15
293.15
293.15
293.15
293.15
293.15
293.15
293.15
293.15
293.15
293.15
293.15
293.15
293.15
293.15
293.15
293.15
293.15
293.15
293.15
293.15
293.15
293.15
293.15
293.15
293.15
293.15
293.15
293.151
293.152
293.153
293.156
293.162
293.172
293.19
293.223
293.281
293.381
293.559
293.896
294.571
295.912
298.555
303.504
310.651
316.538
316.9
316.768
316.346
315.458
314.549
313.717
312.947
312.305
311.712
311.105
310.487
309.806
308.793
293.15
293.15
293.15
293.15
293.15
293.15
293.15
293.15
293.15
293.15
293.15
293.15
293.15
293.15
293.15
293.15
293.15
293.15
293.15
293.15
293.15
293.15
293.15
293.15
293.15
293.15
293.15
293.15
293.151
293.151
293.152
293.154
293.158
293.165
293.178
293.201
293.241
293.312
293.436
293.66
294.094
294.961
296.678
300.014
305.765
312.537
315.592
315.371
315.329
315.226
314.946
314.402
313.726
313.135
312.54
311.992
311.456
310.9
310.267
309.502
293.15
293.15
293.15
293.15
293.15
293.15
293.15
293.15
293.15
293.15
293.15
293.15
293.15
293.15
293.15
293.15
293.15
293.15
293.15
293.15
293.15
293.15
293.15
293.15
293.15
293.15
293.15
293.15
293.151
293.151
293.153
293.155
293.16
293.169
293.185
293.214
293.264
293.352
293.506
293.792
294.357
295.478
297.69
301.851
307.959
313.514
314.158
314.168
314.145
314.079
314.011
313.857
313.546
313.192
312.668
312.099
311.527
311.038
310.441
309.774
293.15
293.15
293.15
293.15
293.15
293.15
293.15
293.15
293.15
293.15
293.15
293.15
293.15
293.15
293.15
293.15
293.15
293.15
293.15
293.15
293.15
293.15
293.15
293.15
293.15
293.15
293.15
293.151
293.151
293.152
293.154
293.157
293.163
293.174
293.195
293.23
293.293
293.401
293.596
293.964
294.698
296.154
298.992
303.952
309.916
313.152
313.023
313.031
313.033
313.049
313.029
312.989
312.924
312.803
312.575
312.271
311.768
311.252
310.538
309.855
293.15
293.15
293.15
293.15
293.15
293.15
293.15
293.15
293.15
293.15
293.15
293.15
293.15
293.15
293.15
293.15
293.15
293.15
293.15
293.15
293.15
293.15
293.15
293.15
293.15
293.15
293.15
293.151
293.151
293.152
293.155
293.159
293.167
293.181
293.206
293.25
293.327
293.462
293.708
294.186
295.139
297.019
300.595
306.085
311.566
312.226
312.235
312.164
312.095
312.101
312.116
312.142
312.151
312.149
312.137
312.071
311.893
311.515
310.821
309.926
293.15
293.15
293.15
293.15
293.15
293.15
293.15
293.15
293.15
293.15
293.15
293.15
293.15
293.15
293.15
293.15
293.15
293.15
293.15
293.15
293.15
293.15
293.15
293.15
293.15
293.15
293.15
293.151
293.152
293.153
293.156
293.161
293.171
293.189
293.22
293.274
293.368
293.536
293.85
294.469
295.699
298.109
302.453
308.057
311.834
311.543
311.465
311.329
311.221
311.244
311.265
311.308
311.396
311.564
311.721
311.722
311.661
311.465
311.006
310.164
293.15
293.15
293.15
293.15
293.15
293.15
293.15
293.15
293.15
293.15
293.15
293.15
293.15
293.15
293.15
293.15
293.15
293.15
293.15
293.15
293.15
293.15
293.15
293.15
293.15
293.15
293.151
293.151
293.152
293.154
293.158
293.164
293.176
293.198
293.236
293.302
293.418
293.627
294.026
294.823
296.398
299.435
304.435
309.81
311.204
311.189
310.969
310.505
310.324
310.348
310.384
310.51
310.681
310.958
311.356
311.392
311.373
311.267
310.972
310.349
293.15
293.15
293.15
293.15
293.15
293.15
293.15
293.15
293.15
293.15
293.15
293.15
293.15
293.15
293.15
293.15
293.15
293.15
293.15
293.15
293.15
293.15
293.15
293.15
293.15
293.15
293.151
293.151
293.153
293.155
293.16
293.168
293.183
293.209
293.255
293.335
293.477
293.738
294.248
295.262
297.259
300.99
306.362
311.066
310.753
310.626
310.3
309.802
309.543
309.549
309.59
309.676
309.891
310.33
310.903
311.19
311.175
311.092
310.824
310.309
293.15
293.15
293.15
293.15
293.15
293.15
293.15
293.15
293.15
293.15
293.15
293.15
293.15
293.15
293.15
293.15
293.15
293.15
293.15
293.15
293.15
293.15
293.15
293.15
293.15
293.151
293.151
293.152
293.153
293.156
293.162
293.172
293.19
293.222
293.277
293.374
293.547
293.873
294.518
295.799
298.3
302.725
308.139
310.993
310.784
310.329
309.628
308.941
308.794
308.808
308.855
308.96
309.178
309.577
310.261
310.961
310.937
310.894
310.736
310.347
293.15
293.15
293.15
293.15
293.15
293.15
293.15
293.15
293.15
293.15
293.15
293.15
293.15
293.15
293.15
293.15
293.15
293.15
293.15
293.15
293.15
293.15
293.15
293.15
293.15
293.151
293.151
293.152
293.154
293.158
293.165
293.177
293.199
293.237
293.303
293.419
293.631
294.036
294.845
296.445
299.523
304.52
309.697
310.591
310.488
310.03
309.144
308.222
308.071
308.111
308.183
308.28
308.463
308.831
309.512
310.493
310.79
310.755
310.621
310.313
293.15
293.15
293.15
293.15
293.15
293.15
293.15
293.15
293.15
293.15
293.15
293.15
293.15
293.15
293.15
293.15
293.15
293.15
293.15
293.15
293.15
293.15
293.15
293.15
293.15
293.151
293.151
293.153
293.155
293.16
293.168
293.182
293.208
293.253
293.332
293.471
293.729
294.233
295.236
297.214
300.913
306.254
310.862
310.351
310.118
309.574
308.627
307.689
307.432
307.463
307.533
307.635
307.802
308.118
308.732
309.769
310.585
310.521
310.459
310.263
293.15
293.15
293.15
293.15
293.15
293.15
293.15
293.15
293.15
293.15
293.15
293.15
293.15
293.15
293.15
293.15
293.15
293.15
293.15
293.15
293.15
293.15
293.15
293.15
293.151
293.151
293.152
293.153
293.156
293.161
293.171
293.189
293.219
293.272
293.365
293.532
293.844
294.466
295.699
298.113
302.435
307.865
310.923
310.62
310.014
309.024
307.974
307.222
306.883
306.905
306.955
307.041
307.182
307.456
307.99
308.82
309.957
310.424
310.362
310.194
293.15
293.15
293.15
293.15
293.15
293.15
293.15
293.15
293.15
293.15
293.15
293.15
293.15
293.15
293.15
293.15
293.15
293.15
293.15
293.15
293.15
293.15
293.15
293.15
293.151
293.151
293.152
293.154
293.157
293.164
293.175
293.196
293.231
293.293
293.403
293.6
293.979
294.737
296.236
299.14
304.006
309.302
310.69
310.517
309.885
308.7
307.413
306.756
306.404
306.419
306.439
306.486
306.594
306.809
307.227
307.966
308.994
310.023
310.171
310.155
293.15
293.15
293.15
293.15
293.15
293.15
293.15
293.15
293.15
293.15
293.15
293.15
293.15
293.15
293.15
293.15
293.15
293.15
293.15
293.15
293.15
293.15
293.15
293.15
293.151
293.151
293.152
293.155
293.159
293.166
293.18
293.203
293.245
293.317
293.444
293.679
294.137
295.05
296.853
300.282
305.544
310.477
310.424
310.241
309.635
308.445
307.038
306.337
306.001
305.956
305.969
306.004
306.082
306.237
306.533
307.073
307.968
309.084
309.896
309.969
293.15
293.15
293.15
293.15
293.15
293.15
293.15
293.15
293.15
293.15
293.15
293.15
293.15
293.15
293.15
293.15
293.15
293.15
293.15
293.15
293.15
293.15
293.15
293.15
293.151
293.152
293.153
293.155
293.16
293.169
293.184
293.212
293.26
293.343
293.491
293.768
294.317
295.407
297.553
301.518
306.991
311.127
310.494
309.979
309.287
308.086
306.79
306.012
305.644
305.534
305.542
305.56
305.613
305.735
305.935
306.296
306.92
307.96
309.072
309.775
293.15
293.15
293.15
293.15
293.15
293.15
293.15
293.15
293.15
293.15
293.15
293.15
293.15
293.15
293.15
293.15
293.15
293.15
293.15
293.15
293.15
293.15
293.15
293.151
293.151
293.152
293.153
293.156
293.162
293.172
293.19
293.221
293.275
293.371
293.542
293.869
294.519
295.808
298.331
302.811
308.315
311.081
310.752
310.067
308.808
307.64
306.576
305.786
305.361
305.161
305.166
305.176
305.205
305.266
305.404
305.617
306.088
306.872
307.839
309.002
293.15
293.15
293.15
293.15
293.15
293.15
293.15
293.15
293.15
293.15
293.15
293.15
293.15
293.15
293.15
293.15
293.15
293.15
293.15
293.15
293.15
293.15
293.15
293.151
293.151
293.152
293.154
293.157
293.164
293.175
293.195
293.231
293.293
293.401
293.599
293.981
294.742
296.252
299.178
304.105
309.486
310.922
310.712
309.983
308.615
307.253
306.359
305.627
305.155
304.89
304.793
304.798
304.824
304.867
304.946
305.086
305.372
305.828
306.675
307.804
293.15
293.15
293.15
293.15
293.15
293.15
293.15
293.15
293.15
293.15
293.15
293.15
293.15
293.15
293.15
293.15
293.15
293.15
293.15
293.15
293.15
293.15
293.15
293.151
293.151
293.152
293.155
293.158
293.166
293.179
293.201
293.241
293.311
293.434
293.661
294.105
294.989
296.737
300.08
305.351
310.448
310.734
310.54
309.835
308.481
306.987
306.152
305.502
305.014
304.704
304.503
304.46
304.466
304.478
304.534
304.631
304.777
305.079
305.6
306.509
293.15
293.15
293.15
293.15
293.15
293.15
293.15
293.15
293.15
293.15
293.15
293.15
293.15
293.15
293.15
293.15
293.15
293.15
293.15
293.15
293.15
293.15
293.15
293.151
293.151
293.153
293.155
293.16
293.168
293.182
293.208
293.252
293.33
293.468
293.727
294.238
295.254
297.259
301.023
306.517
311.161
310.593
310.32
309.637
308.326
306.819
305.976
305.394
304.917
304.58
304.331
304.162
304.134
304.139
304.154
304.216
304.306
304.463
304.795
305.376
293.15
293.15
293.15
293.15
293.15
293.15
293.15
293.15
293.15
293.15
293.15
293.15
293.15
293.15
293.15
293.15
293.15
293.15
293.15
293.15
293.15
293.15
293.151
293.151
293.152
293.153
293.156
293.161
293.17
293.186
293.214
293.264
293.35
293.505
293.798
294.38
295.537
297.812
301.984
307.583
311.402
310.854
310.101
309.329
308.101
306.705
305.84
305.299
304.847
304.495
304.224
304.001
303.851
303.809
303.815
303.846
303.891
303.97
304.152
304.486
293.15
293.15
293.15
293.15
293.15
293.15
293.15
293.15
293.15
293.15
293.15
293.15
293.15
293.15
293.15
293.15
293.15
293.15
293.15
293.15
293.15
293.15
293.151
293.151
293.152
293.153
293.156
293.162
293.172
293.19
293.221
293.275
293.371
293.543
293.872
294.53
295.835
298.388
302.936
308.542
311.378
310.996
310.199
308.978
307.814
306.605
305.744
305.217
304.793
304.437
304.154
303.907
303.703
303.557
303.486
303.508
303.521
303.556
303.633
303.819
293.15
293.15
293.15
293.15
293.15
293.15
293.15
293.15
293.15
293.15
293.15
293.15
293.15
293.15
293.15
293.15
293.15
293.15
293.15
293.15
293.15
293.15
293.151
293.151
293.152
293.154
293.157
293.163
293.174
293.194
293.228
293.287
293.391
293.582
293.95
294.684
296.14
298.975
303.85
309.384
311.285
311.029
310.255
308.731
307.534
306.501
305.675
305.15
304.749
304.396
304.105
303.847
303.62
303.429
303.281
303.191
303.181
303.188
303.22
303.315
293.15
293.15
293.15
293.15
293.15
293.15
293.15
293.15
293.15
293.15
293.15
293.15
293.15
293.15
293.15
293.15
293.15
293.15
293.15
293.15
293.15
293.15
293.151
293.151
293.152
293.154
293.158
293.165
293.177
293.198
293.235
293.299
293.412
293.621
294.029
294.842
296.452
299.561
304.706
310.101
311.182
310.959
310.164
308.67
307.304
306.392
305.623
305.099
304.713
304.367
304.072
303.809
303.568
303.356
303.173
303.027
302.924
302.873
302.892
302.909
293.15
293.15
293.15
293.15
293.15
293.15
293.15
293.15
293.15
293.15
293.15
293.15
293.15
293.15
293.15
293.15
293.15
293.15
293.15
293.15
293.15
293.15
293.151
293.151
293.152
293.155
293.159
293.166
293.179
293.202
293.241
293.31
293.433
293.661
294.108
294.999
296.762
300.138
305.492
310.69
311.07
310.85
310.075
308.601
307.135
306.285
305.58
305.06
304.684
304.346
304.049
303.783
303.535
303.312
303.111
302.937
302.794
302.69
302.623
302.613
293.15
293.15
293.15
293.15
293.15
293.15
293.15
293.15
293.15
293.15
293.15
293.15
293.15
293.15
293.15
293.15
293.15
293.15
293.15
293.15
293.15
293.15
293.151
293.151
293.153
293.155
293.159
293.167
293.181
293.205
293.248
293.322
293.453
293.699
294.186
295.153
297.065
300.693
306.199
311.156
310.967
310.733
309.976
308.522
307.016
306.19
305.541
305.03
304.66
304.33
304.033
303.766
303.515
303.285
303.075
302.886
302.722
302.587
302.482
302.417
293.15
293.15
293.15
293.15
293.15
293.15
293.15
293.15
293.15
293.15
293.15
293.15
293.15
293.15
293.15
293.15
293.15
293.15
293.15
293.15
293.15
293.15
293.151
293.152
293.153
293.155
293.16
293.168
293.183
293.209
293.254
293.332
293.472
293.736
294.26
295.301
297.355
301.213
306.823
311.497
310.898
310.615
309.868
308.441
306.931
306.109
305.506
305.008
304.641
304.318
304.022
303.755
303.503
303.268
303.052
302.855
302.679
302.526
302.399
302.3
293.15
293.15
293.15
293.15
293.15
293.15
293.15
293.15
293.15
293.15
293.15
293.15
293.15
293.15
293.15
293.15
293.15
293.15
293.15
293.15
293.15
293.151
293.151
293.152
293.153
293.156
293.16
293.169
293.185
293.212
293.259
293.342
293.49
293.771
294.33
295.44
297.627
301.689
307.363
311.697
310.937
310.484
309.746
308.357
306.871
306.044
305.474
304.992
304.626
304.31
304.015
303.748
303.495
303.259
303.04
302.838
302.655
302.492
302.35
302.23
293.15
293.15
293.15
293.15
293.15
293.15
293.15
293.15
293.15
293.15
293.15
293.15
293.15
293.15
293.15
293.15
293.15
293.15
293.15
293.15
293.15
293.151
293.151
293.152
293.153
293.156
293.161
293.17
293.186
293.215
293.264
293.351
293.506
293.803
294.393
295.566
297.872
302.111
307.82
311.745
311.114
310.376
309.585
308.267
306.826
305.992
305.446
304.978
304.614
304.303
304.011
303.744
303.492
303.254
303.033
302.828
302.64
302.47
302.32
302.188
293.15
293.15
293.15
293.15
293.15
293.15
293.15
293.15
293.15
293.15
293.15
293.15
293.15
293.15
293.15
293.15
293.15
293.15
293.15
293.15
293.15
293.151
293.151
293.152
293.153
293.156
293.161
293.171
293.188
293.217
293.268
293.358
293.52
293.83
294.449
295.677
298.087
302.473
308.195
311.754
311.242
310.337
309.44
308.172
306.791
305.954
305.423
304.968
304.606
304.298
304.008
303.742
303.49
303.252
303.03
302.822
302.631
302.457
302.301
302.161
293.15
293.15
293.15
293.15
293.15
293.15
293.15
293.15
293.15
293.15
293.15
293.15
293.15
293.15
293.15
293.15
293.15
293.15
293.15
293.15
293.15
293.151
293.151
293.152
293.153
293.156
293.162
293.172
293.189
293.219
293.272
293.365
293.532
293.853
294.495
295.769
298.265
302.767
308.492
311.753
311.285
310.36
309.325
308.088
306.764
305.925
305.404
304.96
304.599
304.295
304.006
303.741
303.489
303.251
303.027
302.818
302.625
302.448
302.288
302.142
293.15
293.15
293.15
293.15
293.15
293.15
293.15
293.15
293.15
293.15
293.15
293.15
293.15
293.15
293.15
293.15
293.15
293.15
293.15
293.15
293.15
293.151
293.151
293.152
293.154
293.157
293.162
293.172
293.19
293.221
293.275
293.369
293.541
293.871
294.531
295.84
298.403
302.992
308.712
311.746
311.301
310.39
309.24
308.023
306.743
305.906
305.39
304.954
304.595
304.292
304.005
303.74
303.49
303.251
303.027
302.816
302.621
302.441
302.278
302.129
293.15
293.15
293.15
293.15
293.15
293.15
293.15
293.15
293.15
293.15
293.15
293.15
293.15
293.15
293.15
293.15
293.15
293.15
293.15
293.15
293.15
293.151
293.151
293.152
293.154
293.157
293.162
293.172
293.19
293.222
293.277
293.373
293.547
293.883
294.555
295.888
298.497
303.142
308.857
311.737
311.311
310.411
309.186
307.978
306.729
305.893
305.381
304.95
304.592
304.291
304.005
303.74
303.49
303.252
303.027
302.816
302.619
302.438
302.271
302.121
293.15
293.15
293.15
293.15
293.15
293.15
293.15
293.15
293.15
293.15
293.15
293.15
293.15
293.15
293.15
293.15
293.15
293.15
293.15
293.15
293.15
293.151
293.151
293.152
293.154
293.157
293.162
293.173
293.191
293.222
293.278
293.374
293.55
293.889
294.567
295.912
298.543
303.217
308.928
311.734
311.317
310.42
309.161
307.956
306.721
305.886
305.376
304.948
304.59
304.29
304.005
303.74
303.49
303.252
303.028
302.817
302.619
302.437
302.268
302.117
293.15
293.15
293.15
293.15
293.15
293.15
293.15
293.15
293.15
293.15
293.15
293.15
293.15
293.15
293.15
293.15
293.15
293.15
293.15
293.15
293.15
293.151
293.151
293.152
293.154
293.157
293.162
293.173
293.191
293.222
293.278
293.374
293.55
293.889
294.567
295.912
298.543
303.217
308.928
311.734
311.317
310.42
309.161
307.956
306.721
305.886
305.376
304.948
304.59
304.29
304.005
303.74
303.49
303.252
303.028
302.817
302.619
302.437
302.268
302.117
293.15
293.15
293.15
293.15
293.15
293.15
293.15
293.15
293.15
293.15
293.15
293.15
293.15
293.15
293.15
293.15
293.15
293.15
293.15
293.15
293.15
293.151
293.151
293.152
293.154
293.157
293.162
293.172
293.19
293.222
293.277
293.373
293.547
293.883
294.555
295.888
298.497
303.142
308.857
311.737
311.311
310.411
309.186
307.978
306.729
305.893
305.381
304.95
304.592
304.291
304.005
303.74
303.49
303.252
303.028
302.816
302.619
302.438
302.271
302.121
293.15
293.15
293.15
293.15
293.15
293.15
293.15
293.15
293.15
293.15
293.15
293.15
293.15
293.15
293.15
293.15
293.15
293.15
293.15
293.15
293.15
293.151
293.151
293.152
293.154
293.157
293.162
293.172
293.19
293.221
293.275
293.369
293.541
293.871
294.531
295.84
298.403
302.992
308.712
311.746
311.301
310.39
309.24
308.023
306.743
305.905
305.39
304.954
304.595
304.292
304.005
303.74
303.49
303.251
303.027
302.816
302.621
302.441
302.278
302.129
293.15
293.15
293.15
293.15
293.15
293.15
293.15
293.15
293.15
293.15
293.15
293.15
293.15
293.15
293.15
293.15
293.15
293.15
293.15
293.15
293.15
293.151
293.151
293.152
293.153
293.156
293.162
293.172
293.189
293.219
293.272
293.365
293.532
293.853
294.495
295.769
298.265
302.767
308.492
311.753
311.285
310.36
309.325
308.088
306.763
305.925
305.404
304.96
304.599
304.295
304.006
303.741
303.489
303.251
303.028
302.818
302.625
302.448
302.288
302.142
293.15
293.15
293.15
293.15
293.15
293.15
293.15
293.15
293.15
293.15
293.15
293.15
293.15
293.15
293.15
293.15
293.15
293.15
293.15
293.15
293.15
293.151
293.151
293.152
293.153
293.156
293.161
293.171
293.188
293.217
293.268
293.358
293.52
293.83
294.449
295.677
298.087
302.473
308.195
311.754
311.242
310.337
309.44
308.172
306.791
305.953
305.423
304.968
304.606
304.298
304.008
303.742
303.49
303.252
303.03
302.822
302.631
302.457
302.301
302.161
293.15
293.15
293.15
293.15
293.15
293.15
293.15
293.15
293.15
293.15
293.15
293.15
293.15
293.15
293.15
293.15
293.15
293.15
293.15
293.15
293.15
293.151
293.151
293.152
293.153
293.156
293.161
293.17
293.186
293.215
293.264
293.351
293.506
293.803
294.393
295.566
297.872
302.111
307.82
311.745
311.114
310.376
309.584
308.266
306.825
305.992
305.446
304.978
304.614
304.303
304.011
303.744
303.492
303.255
303.033
302.828
302.64
302.471
302.32
302.188
293.15
293.15
293.15
293.15
293.15
293.15
293.15
293.15
293.15
293.15
293.15
293.15
293.15
293.15
293.15
293.15
293.15
293.15
293.15
293.15
293.15
293.151
293.151
293.152
293.153
293.156
293.16
293.169
293.185
293.212
293.259
293.342
293.49
293.771
294.33
295.44
297.627
301.689
307.363
311.697
310.937
310.484
309.746
308.357
306.87
306.043
305.474
304.991
304.626
304.31
304.015
303.748
303.496
303.26
303.041
302.838
302.655
302.492
302.35
302.231
293.15
293.15
293.15
293.15
293.15
293.15
293.15
293.15
293.15
293.15
293.15
293.15
293.15
293.15
293.15
293.15
293.15
293.15
293.15
293.15
293.15
293.15
293.151
293.152
293.153
293.155
293.16
293.168
293.183
293.209
293.254
293.332
293.472
293.736
294.26
295.301
297.355
301.213
306.823
311.497
310.898
310.615
309.868
308.441
306.931
306.108
305.505
305.008
304.641
304.318
304.022
303.755
303.503
303.269
303.052
302.855
302.679
302.527
302.4
302.3
293.15
293.15
293.15
293.15
293.15
293.15
293.15
293.15
293.15
293.15
293.15
293.15
293.15
293.15
293.15
293.15
293.15
293.15
293.15
293.15
293.15
293.15
293.151
293.151
293.153
293.155
293.159
293.167
293.181
293.205
293.248
293.322
293.453
293.699
294.186
295.153
297.065
300.692
306.199
311.156
310.967
310.733
309.976
308.522
307.015
306.189
305.541
305.03
304.66
304.33
304.033
303.766
303.515
303.285
303.075
302.886
302.722
302.587
302.482
302.417
293.15
293.15
293.15
293.15
293.15
293.15
293.15
293.15
293.15
293.15
293.15
293.15
293.15
293.15
293.15
293.15
293.15
293.15
293.15
293.15
293.15
293.15
293.151
293.151
293.152
293.155
293.159
293.166
293.179
293.202
293.241
293.31
293.433
293.661
294.108
294.999
296.762
300.138
305.492
310.69
311.07
310.85
310.075
308.6
307.135
306.285
305.579
305.059
304.684
304.346
304.049
303.783
303.536
303.312
303.112
302.938
302.795
302.69
302.624
302.613
293.15
293.15
293.15
293.15
293.15
293.15
293.15
293.15
293.15
293.15
293.15
293.15
293.15
293.15
293.15
293.15
293.15
293.15
293.15
293.15
293.15
293.15
293.151
293.151
293.152
293.154
293.158
293.165
293.177
293.198
293.235
293.299
293.412
293.621
294.029
294.842
296.452
299.56
304.706
310.1
311.182
310.959
310.164
308.67
307.303
306.391
305.623
305.098
304.713
304.367
304.072
303.809
303.568
303.356
303.174
303.027
302.925
302.873
302.892
302.909
293.15
293.15
293.15
293.15
293.15
293.15
293.15
293.15
293.15
293.15
293.15
293.15
293.15
293.15
293.15
293.15
293.15
293.15
293.15
293.15
293.15
293.15
293.151
293.151
293.152
293.154
293.157
293.163
293.174
293.194
293.228
293.287
293.391
293.582
293.95
294.684
296.14
298.975
303.85
309.384
311.285
311.029
310.255
308.73
307.533
306.5
305.674
305.15
304.749
304.396
304.105
303.848
303.62
303.429
303.281
303.191
303.181
303.188
303.22
303.316
293.15
293.15
293.15
293.15
293.15
293.15
293.15
293.15
293.15
293.15
293.15
293.15
293.15
293.15
293.15
293.15
293.15
293.15
293.15
293.15
293.15
293.15
293.151
293.151
293.152
293.153
293.156
293.162
293.172
293.19
293.221
293.275
293.371
293.543
293.872
294.53
295.834
298.387
302.936
308.542
311.378
310.995
310.199
308.977
307.814
306.605
305.743
305.217
304.793
304.437
304.154
303.907
303.704
303.557
303.486
303.508
303.521
303.556
303.633
303.82
293.15
293.15
293.15
293.15
293.15
293.15
293.15
293.15
293.15
293.15
293.15
293.15
293.15
293.15
293.15
293.15
293.15
293.15
293.15
293.15
293.15
293.15
293.151
293.151
293.152
293.153
293.156
293.161
293.17
293.186
293.214
293.264
293.35
293.505
293.798
294.38
295.537
297.812
301.984
307.583
311.402
310.853
310.1
309.329
308.101
306.704
305.84
305.299
304.847
304.495
304.225
304.001
303.851
303.809
303.815
303.846
303.891
303.971
304.153
304.486
293.15
293.15
293.15
293.15
293.15
293.15
293.15
293.15
293.15
293.15
293.15
293.15
293.15
293.15
293.15
293.15
293.15
293.15
293.15
293.15
293.15
293.15
293.15
293.151
293.151
293.153
293.155
293.16
293.168
293.182
293.208
293.252
293.33
293.468
293.727
294.238
295.254
297.259
301.023
306.516
311.16
310.593
310.32
309.637
308.326
306.819
305.976
305.394
304.917
304.58
304.331
304.163
304.134
304.139
304.154
304.216
304.307
304.463
304.795
305.377
293.15
293.15
293.15
293.15
293.15
293.15
293.15
293.15
293.15
293.15
293.15
293.15
293.15
293.15
293.15
293.15
293.15
293.15
293.15
293.15
293.15
293.15
293.15
293.151
293.151
293.152
293.155
293.158
293.166
293.179
293.201
293.241
293.311
293.434
293.661
294.105
294.989
296.737
300.08
305.35
310.448
310.733
310.54
309.835
308.481
306.987
306.152
305.502
305.014
304.705
304.503
304.461
304.466
304.478
304.534
304.631
304.777
305.079
305.6
306.51
293.15
293.15
293.15
293.15
293.15
293.15
293.15
293.15
293.15
293.15
293.15
293.15
293.15
293.15
293.15
293.15
293.15
293.15
293.15
293.15
293.15
293.15
293.15
293.151
293.151
293.152
293.154
293.157
293.164
293.175
293.195
293.231
293.293
293.401
293.599
293.981
294.742
296.252
299.178
304.104
309.485
310.921
310.712
309.982
308.615
307.253
306.359
305.627
305.156
304.89
304.794
304.798
304.824
304.868
304.947
305.086
305.372
305.829
306.675
307.804
293.15
293.15
293.15
293.15
293.15
293.15
293.15
293.15
293.15
293.15
293.15
293.15
293.15
293.15
293.15
293.15
293.15
293.15
293.15
293.15
293.15
293.15
293.15
293.151
293.151
293.152
293.153
293.156
293.162
293.172
293.19
293.221
293.275
293.371
293.542
293.869
294.519
295.808
298.33
302.81
308.314
311.081
310.752
310.067
308.808
307.641
306.576
305.786
305.361
305.161
305.166
305.176
305.206
305.266
305.404
305.617
306.088
306.872
307.839
309.002
293.15
293.15
293.15
293.15
293.15
293.15
293.15
293.15
293.15
293.15
293.15
293.15
293.15
293.15
293.15
293.15
293.15
293.15
293.15
293.15
293.15
293.15
293.15
293.15
293.151
293.152
293.153
293.155
293.16
293.169
293.184
293.212
293.26
293.343
293.491
293.768
294.317
295.407
297.553
301.517
306.99
311.126
310.494
309.979
309.287
308.086
306.79
306.012
305.645
305.534
305.542
305.561
305.613
305.736
305.936
306.297
306.92
307.96
309.072
309.775
293.15
293.15
293.15
293.15
293.15
293.15
293.15
293.15
293.15
293.15
293.15
293.15
293.15
293.15
293.15
293.15
293.15
293.15
293.15
293.15
293.15
293.15
293.15
293.15
293.151
293.151
293.152
293.155
293.159
293.166
293.18
293.203
293.245
293.317
293.444
293.679
294.137
295.05
296.853
300.282
305.544
310.476
310.423
310.24
309.634
308.446
307.038
306.338
306.001
305.957
305.97
306.005
306.083
306.238
306.534
307.074
307.968
309.083
309.895
309.968
293.15
293.15
293.15
293.15
293.15
293.15
293.15
293.15
293.15
293.15
293.15
293.15
293.15
293.15
293.15
293.15
293.15
293.15
293.15
293.15
293.15
293.15
293.15
293.15
293.151
293.151
293.152
293.154
293.157
293.164
293.175
293.196
293.231
293.293
293.403
293.6
293.979
294.737
296.236
299.14
304.006
309.301
310.689
310.516
309.884
308.7
307.413
306.756
306.404
306.42
306.44
306.487
306.594
306.81
307.227
307.967
308.994
310.022
310.17
310.153
293.15
293.15
293.15
293.15
293.15
293.15
293.15
293.15
293.15
293.15
293.15
293.15
293.15
293.15
293.15
293.15
293.15
293.15
293.15
293.15
293.15
293.15
293.15
293.15
293.151
293.151
293.152
293.153
293.156
293.161
293.171
293.189
293.219
293.272
293.365
293.532
293.844
294.466
295.699
298.113
302.434
307.864
310.922
310.619
310.014
309.024
307.975
307.222
306.884
306.906
306.956
307.042
307.183
307.457
307.991
308.821
309.957
310.422
310.361
310.192
293.15
293.15
293.15
293.15
293.15
293.15
293.15
293.15
293.15
293.15
293.15
293.15
293.15
293.15
293.15
293.15
293.15
293.15
293.15
293.15
293.15
293.15
293.15
293.15
293.15
293.151
293.151
293.153
293.155
293.16
293.168
293.182
293.208
293.253
293.332
293.471
293.729
294.233
295.236
297.214
300.913
306.254
310.861
310.35
310.118
309.574
308.628
307.69
307.433
307.464
307.534
307.636
307.803
308.119
308.733
309.769
310.584
310.519
310.457
310.261
293.15
293.15
293.15
293.15
293.15
293.15
293.15
293.15
293.15
293.15
293.15
293.15
293.15
293.15
293.15
293.15
293.15
293.15
293.15
293.15
293.15
293.15
293.15
293.15
293.15
293.151
293.151
293.152
293.154
293.158
293.165
293.177
293.199
293.237
293.303
293.419
293.631
294.036
294.844
296.445
299.522
304.519
309.696
310.591
310.488
310.03
309.144
308.223
308.072
308.112
308.184
308.281
308.465
308.832
309.513
310.493
310.788
310.753
310.619
310.311
293.15
293.15
293.15
293.15
293.15
293.15
293.15
293.15
293.15
293.15
293.15
293.15
293.15
293.15
293.15
293.15
293.15
293.15
293.15
293.15
293.15
293.15
293.15
293.15
293.15
293.151
293.151
293.152
293.153
293.156
293.162
293.172
293.19
293.222
293.277
293.374
293.547
293.873
294.518
295.799
298.3
302.724
308.138
310.992
310.784
310.328
309.629
308.942
308.795
308.809
308.857
308.961
309.18
309.578
310.262
310.96
310.935
310.892
310.734
310.344
293.15
293.15
293.15
293.15
293.15
293.15
293.15
293.15
293.15
293.15
293.15
293.15
293.15
293.15
293.15
293.15
293.15
293.15
293.15
293.15
293.15
293.15
293.15
293.15
293.15
293.15
293.151
293.151
293.153
293.155
293.16
293.168
293.183
293.209
293.255
293.335
293.477
293.738
294.248
295.262
297.259
300.989
306.361
311.066
310.753
310.626
310.3
309.803
309.545
309.55
309.591
309.677
309.892
310.331
310.904
311.189
311.173
311.091
310.823
310.306
293.15
293.15
293.15
293.15
293.15
293.15
293.15
293.15
293.15
293.15
293.15
293.15
293.15
293.15
293.15
293.15
293.15
293.15
293.15
293.15
293.15
293.15
293.15
293.15
293.15
293.15
293.151
293.151
293.152
293.154
293.158
293.164
293.176
293.198
293.236
293.302
293.418
293.627
294.026
294.822
296.398
299.435
304.434
309.809
311.205
311.189
310.97
310.506
310.326
310.35
310.386
310.512
310.682
310.959
311.357
311.391
311.372
311.266
310.971
310.346
293.15
293.15
293.15
293.15
293.15
293.15
293.15
293.15
293.15
293.15
293.15
293.15
293.15
293.15
293.15
293.15
293.15
293.15
293.15
293.15
293.15
293.15
293.15
293.15
293.15
293.15
293.15
293.151
293.152
293.153
293.156
293.161
293.171
293.189
293.22
293.274
293.368
293.536
293.85
294.469
295.698
298.108
302.452
308.056
311.834
311.544
311.466
311.331
311.223
311.246
311.267
311.31
311.398
311.566
311.721
311.723
311.661
311.463
311.006
310.159
293.15
293.15
293.15
293.15
293.15
293.15
293.15
293.15
293.15
293.15
293.15
293.15
293.15
293.15
293.15
293.15
293.15
293.15
293.15
293.15
293.15
293.15
293.15
293.15
293.15
293.15
293.15
293.151
293.151
293.152
293.155
293.159
293.167
293.181
293.206
293.25
293.327
293.462
293.708
294.186
295.138
297.018
300.593
306.083
311.566
312.228
312.237
312.166
312.098
312.104
312.119
312.145
312.154
312.151
312.138
312.071
311.892
311.513
310.816
309.922
293.15
293.15
293.15
293.15
293.15
293.15
293.15
293.15
293.15
293.15
293.15
293.15
293.15
293.15
293.15
293.15
293.15
293.15
293.15
293.15
293.15
293.15
293.15
293.15
293.15
293.15
293.15
293.151
293.151
293.152
293.154
293.157
293.163
293.174
293.195
293.23
293.292
293.401
293.596
293.964
294.698
296.154
298.99
303.951
309.915
313.154
313.026
313.034
313.037
313.053
313.033