/*--------------------------------*- C++ -*----------------------------------*\
  =========                 |
  \\      /  F ield         | OpenFOAM: The Open Source CFD Toolbox
   \\    /   O peration     | Website:  https://openfoam.org
    \\  /    A nd           | Version:  9
     \\/     M anipulation  |
\*---------------------------------------------------------------------------*/
FoamFile
{
    format      ascii;
    class       volVectorField;
    location    "0.006";
    object      U;
}
// * * * * * * * * * * * * * * * * * * * * * * * * * * * * * * * * * * * * * //

dimensions      [0 1 -1 0 0 0 0];

internalField   nonuniform List<vector> 
36400
(
(165.65 -4.39055e-09 0)
(165.65 -1.15605e-08 0)
(165.65 -1.5544e-08 0)
(165.65 -1.7788e-08 0)
(165.65 -2.31118e-08 0)
(165.65 -3.13335e-08 0)
(165.65 -4.22208e-08 0)
(165.65 -5.68051e-08 0)
(165.65 -7.67025e-08 0)
(165.65 -1.04177e-07 0)
(165.65 -1.42386e-07 0)
(165.65 -1.95804e-07 0)
(165.65 -2.70833e-07 0)
(165.65 -3.76642e-07 0)
(165.65 -5.26378e-07 0)
(165.65 -7.38952e-07 0)
(165.65 -1.04169e-06 0)
(165.65 -1.47427e-06 0)
(165.65 -2.09458e-06 0)
(165.65 -2.98764e-06 0)
(165.65 -4.27993e-06 0)
(165.65 -6.16488e-06 0)
(165.65 -8.95327e-06 0)
(165.65 -1.31804e-05 0)
(165.65 -1.98362e-05 0)
(165.65 -3.08473e-05 0)
(165.65 -5.0056e-05 0)
(165.65 -8.51554e-05 0)
(165.649 -0.000151461 0)
(165.649 -0.000279161 0)
(165.648 -0.000527032 0)
(165.646 -0.00100778 0)
(165.641 -0.00193333 0)
(165.633 -0.00369281 0)
(165.619 -0.00698111 0)
(165.591 -0.0130038 0)
(165.541 -0.0238015 0)
(165.453 -0.0427871 0)
(165.298 -0.0757648 0)
(165.027 -0.133446 0)
(164.528 -0.238803 0)
(163.543 -0.450488 0)
(161.559 -0.876482 0)
(157.564 -1.73563 0)
(149.537 -3.46208 0)
(134.308 -6.81418 0)
(112.523 -11.0883 0)
(101.374 -10.8087 0)
(105.361 -7.90927 0)
(111.378 -5.22073 0)
(119.44 -3.05261 0)
(126.295 -1.83146 0)
(130.724 -1.05568 0)
(134.069 -0.620614 0)
(136.672 -0.312082 0)
(139.185 -0.0678573 0)
(141.311 -0.0276292 0)
(143.568 -0.000498201 0)
(144.966 -0.0250582 0)
(148.864 0.969945 0)
(165.65 -6.4232e-09 0)
(165.65 -1.78683e-08 0)
(165.65 -2.49524e-08 0)
(165.65 -2.78045e-08 0)
(165.65 -3.48431e-08 0)
(165.65 -4.69123e-08 0)
(165.65 -6.37972e-08 0)
(165.65 -8.67305e-08 0)
(165.65 -1.18229e-07 0)
(165.65 -1.62108e-07 0)
(165.65 -2.23764e-07 0)
(165.65 -3.10893e-07 0)
(165.65 -4.34594e-07 0)
(165.65 -6.1091e-07 0)
(165.65 -8.63051e-07 0)
(165.65 -1.22466e-06 0)
(165.65 -1.74464e-06 0)
(165.65 -2.49434e-06 0)
(165.65 -3.57829e-06 0)
(165.65 -5.15055e-06 0)
(165.65 -7.44141e-06 0)
(165.65 -1.08055e-05 0)
(165.65 -1.58182e-05 0)
(165.65 -2.3481e-05 0)
(165.65 -3.56602e-05 0)
(165.65 -5.59954e-05 0)
(165.65 -9.1729e-05 0)
(165.649 -0.000157303 0)
(165.649 -0.000281344 0)
(165.648 -0.000520039 0)
(165.647 -0.000982267 0)
(165.644 -0.00187557 0)
(165.638 -0.00358735 0)
(165.627 -0.00682244 0)
(165.607 -0.0128272 0)
(165.57 -0.0237441 0)
(165.504 -0.0431793 0)
(165.386 -0.0771705 0)
(165.18 -0.136084 0)
(164.815 -0.239381 0)
(164.128 -0.428456 0)
(162.762 -0.804854 0)
(160.017 -1.55688 0)
(154.5 -3.06634 0)
(143.462 -6.08422 0)
(124.331 -11.486 0)
(103.605 -16.9315 0)
(95.7807 -13.8675 0)
(98.2768 -9.69696 0)
(101.656 -5.72755 0)
(106.376 -3.04487 0)
(111.135 -2.16881 0)
(114.625 -1.59808 0)
(117.499 -1.23681 0)
(119.996 -0.962042 0)
(122.413 -0.705205 0)
(124.623 -0.698411 0)
(127.206 -0.634741 0)
(128.973 -0.81717 0)
(133.509 -0.277846 0)
(165.65 -4.59466e-09 0)
(165.65 -1.53795e-08 0)
(165.65 -2.51973e-08 0)
(165.65 -3.02604e-08 0)
(165.65 -3.82798e-08 0)
(165.65 -5.20219e-08 0)
(165.65 -7.16918e-08 0)
(165.65 -9.86843e-08 0)
(165.65 -1.36067e-07 0)
(165.65 -1.88625e-07 0)
(165.65 -2.63217e-07 0)
(165.65 -3.69707e-07 0)
(165.65 -5.2242e-07 0)
(165.65 -7.42216e-07 0)
(165.65 -1.05949e-06 0)
(165.65 -1.5186e-06 0)
(165.65 -2.18438e-06 0)
(165.65 -3.15184e-06 0)
(165.65 -4.56069e-06 0)
(165.65 -6.61783e-06 0)
(165.65 -9.63461e-06 0)
(165.65 -1.40958e-05 0)
(165.65 -2.07999e-05 0)
(165.65 -3.11577e-05 0)
(165.65 -4.78216e-05 0)
(165.65 -7.59763e-05 0)
(165.65 -0.000125913 0)
(165.649 -0.00021807 0)
(165.649 -0.000392767 0)
(165.648 -0.000728726 0)
(165.646 -0.00137751 0)
(165.642 -0.00262566 0)
(165.635 -0.00500261 0)
(165.621 -0.00946067 0)
(165.596 -0.0176647 0)
(165.549 -0.0324522 0)
(165.467 -0.0585866 0)
(165.322 -0.104115 0)
(165.068 -0.183189 0)
(164.612 -0.323473 0)
(163.739 -0.585795 0)
(161.993 -1.10603 0)
(158.49 -2.14295 0)
(151.462 -4.2131 0)
(138.049 -8.30875 0)
(118.144 -14.2029 0)
(102.554 -17.571 0)
(98.88 -13.2359 0)
(100.486 -9.70466 0)
(102.313 -6.37405 0)
(104.661 -3.91198 0)
(107.556 -2.86753 0)
(110.335 -2.39459 0)
(112.553 -1.98096 0)
(114.469 -1.67918 0)
(116.333 -1.41707 0)
(118.078 -1.3087 0)
(120.2 -1.17011 0)
(121.74 -1.34214 0)
(125.216 -0.976086 0)
(165.65 -4.27779e-09 0)
(165.65 -1.50504e-08 0)
(165.65 -2.6095e-08 0)
(165.65 -3.28111e-08 0)
(165.65 -4.18746e-08 0)
(165.65 -5.7398e-08 0)
(165.65 -7.97771e-08 0)
(165.65 -1.10853e-07 0)
(165.65 -1.54399e-07 0)
(165.65 -2.16239e-07 0)
(165.65 -3.04812e-07 0)
(165.65 -4.3237e-07 0)
(165.65 -6.16823e-07 0)
(165.65 -8.84396e-07 0)
(165.65 -1.2735e-06 0)
(165.65 -1.84045e-06 0)
(165.65 -2.66792e-06 0)
(165.65 -3.8775e-06 0)
(165.65 -5.6486e-06 0)
(165.65 -8.24808e-06 0)
(165.65 -1.20805e-05 0)
(165.65 -1.77833e-05 0)
(165.65 -2.64226e-05 0)
(165.65 -3.99083e-05 0)
(165.65 -6.1861e-05 0)
(165.65 -9.93728e-05 0)
(165.65 -0.000166499 0)
(165.649 -0.000291068 0)
(165.648 -0.000527756 0)
(165.647 -0.000982752 0)
(165.645 -0.00185907 0)
(165.64 -0.0035371 0)
(165.63 -0.00671229 0)
(165.613 -0.0126215 0)
(165.581 -0.023405 0)
(165.523 -0.0426879 0)
(165.42 -0.0765622 0)
(165.241 -0.135455 0)
(164.924 -0.238268 0)
(164.346 -0.423312 0)
(163.218 -0.778914 0)
(160.954 -1.48738 0)
(156.418 -2.90364 0)
(147.366 -5.73116 0)
(131.817 -10.8797 0)
(113.371 -16.8608 0)
(103.746 -17.2536 0)
(103.371 -13.2681 0)
(104.241 -9.91321 0)
(105.234 -6.85245 0)
(106.475 -4.37462 0)
(108.029 -2.65566 0)
(109.892 -1.83165 0)
(111.716 -1.46439 0)
(113.242 -1.30095 0)
(114.711 -1.20528 0)
(116.134 -1.30714 0)
(117.842 -1.26261 0)
(119.243 -1.50546 0)
(121.639 -1.35055 0)
(165.65 -4.11519e-09 0)
(165.65 -1.47296e-08 0)
(165.65 -2.64602e-08 0)
(165.65 -3.42065e-08 0)
(165.65 -4.53686e-08 0)
(165.65 -6.30107e-08 0)
(165.65 -8.8098e-08 0)
(165.65 -1.23373e-07 0)
(165.65 -1.73415e-07 0)
(165.65 -2.4515e-07 0)
(165.65 -3.48716e-07 0)
(165.65 -4.9897e-07 0)
(165.65 -7.17734e-07 0)
(165.65 -1.0371e-06 0)
(165.65 -1.50426e-06 0)
(165.65 -2.18867e-06 0)
(165.65 -3.19265e-06 0)
(165.65 -4.66713e-06 0)
(165.65 -6.83558e-06 0)
(165.65 -1.00319e-05 0)
(165.65 -1.47664e-05 0)
(165.65 -2.18536e-05 0)
(165.65 -3.26776e-05 0)
(165.65 -4.97512e-05 0)
(165.65 -7.78736e-05 0)
(165.65 -0.000126463 0)
(165.649 -0.000214157 0)
(165.649 -0.000377743 0)
(165.648 -0.000689182 0)
(165.646 -0.00128738 0)
(165.643 -0.00243579 0)
(165.636 -0.00462315 0)
(165.624 -0.00873287 0)
(165.602 -0.0163183 0)
(165.561 -0.0300427 0)
(165.489 -0.0543991 0)
(165.361 -0.0969766 0)
(165.137 -0.171002 0)
(164.739 -0.301429 0)
(163.994 -0.540693 0)
(162.521 -1.01237 0)
(159.565 -1.95385 0)
(153.643 -3.83516 0)
(142.332 -7.56911 0)
(125.277 -13.2556 0)
(110.808 -18.1371 0)
(106.488 -15.8104 0)
(107.225 -13.1856 0)
(107.759 -10.2244 0)
(108.272 -7.5298 0)
(108.871 -5.12253 0)
(109.629 -3.14033 0)
(110.571 -1.70064 0)
(111.716 -0.919136 0)
(112.988 -0.595672 0)
(114.209 -0.580176 0)
(115.551 -0.828436 0)
(117.169 -1.07384 0)
(118.545 -1.39239 0)
(120.394 -1.54716 0)
(165.65 -4.11874e-09 0)
(165.65 -1.48213e-08 0)
(165.65 -2.71699e-08 0)
(165.65 -3.57803e-08 0)
(165.65 -4.92554e-08 0)
(165.65 -6.91451e-08 0)
(165.65 -9.71718e-08 0)
(165.65 -1.37029e-07 0)
(165.65 -1.94199e-07 0)
(165.65 -2.76834e-07 0)
(165.65 -3.96967e-07 0)
(165.65 -5.72342e-07 0)
(165.65 -8.29124e-07 0)
(165.65 -1.20592e-06 0)
(165.65 -1.75968e-06 0)
(165.65 -2.57454e-06 0)
(165.65 -3.77473e-06 0)
(165.65 -5.54406e-06 0)
(165.65 -8.15545e-06 0)
(165.65 -1.20188e-05 0)
(165.65 -1.77662e-05 0)
(165.65 -2.64208e-05 0)
(165.65 -3.97484e-05 0)
(165.65 -6.09947e-05 0)
(165.65 -9.63985e-05 0)
(165.65 -0.000158218 0)
(165.649 -0.00027067 0)
(165.649 -0.00048139 0)
(165.647 -0.00088309 0)
(165.645 -0.00165351 0)
(165.641 -0.00312678 0)
(165.632 -0.00591608 0)
(165.617 -0.011117 0)
(165.588 -0.0206348 0)
(165.537 -0.0377119 0)
(165.446 -0.0678121 0)
(165.287 -0.120261 0)
(165.007 -0.211716 0)
(164.502 -0.375074 0)
(163.534 -0.682283 0)
(161.602 -1.29772 0)
(157.733 -2.52983 0)
(150.01 -4.99164 0)
(136.581 -9.612 0)
(119.715 -15.4559 0)
(110.209 -17.6798 0)
(109.538 -14.9929 0)
(110.099 -12.9159 0)
(110.609 -10.5943 0)
(111.033 -8.3102 0)
(111.427 -6.11041 0)
(111.833 -4.04417 0)
(112.266 -2.23493 0)
(112.738 -0.811606 0)
(113.298 0.100788 0)
(114.01 0.456356 0)
(115.021 0.370531 0)
(116.522 -0.15718 0)
(118.075 -0.870042 0)
(119.844 -1.40263 0)
(165.65 -4.22274e-09 0)
(165.65 -1.52208e-08 0)
(165.65 -2.8237e-08 0)
(165.65 -3.77346e-08 0)
(165.65 -5.3422e-08 0)
(165.65 -7.57493e-08 0)
(165.65 -1.0708e-07 0)
(165.65 -1.52021e-07 0)
(165.65 -2.17054e-07 0)
(165.65 -3.11725e-07 0)
(165.65 -4.50176e-07 0)
(165.65 -6.53344e-07 0)
(165.65 -9.52205e-07 0)
(165.65 -1.39259e-06 0)
(165.65 -2.04233e-06 0)
(165.65 -3.00183e-06 0)
(165.65 -4.41978e-06 0)
(165.65 -6.51666e-06 0)
(165.65 -9.62086e-06 0)
(165.65 -1.42283e-05 0)
(165.65 -2.11115e-05 0)
(165.65 -3.15387e-05 0)
(165.65 -4.77321e-05 0)
(165.65 -7.38227e-05 0)
(165.65 -0.000117792 0)
(165.649 -0.000195336 0)
(165.649 -0.000337399 0)
(165.648 -0.000604611 0)
(165.647 -0.00111431 0)
(165.644 -0.00208973 0)
(165.638 -0.00394647 0)
(165.627 -0.00743877 0)
(165.608 -0.0138987 0)
(165.572 -0.0256203 0)
(165.507 -0.0464866 0)
(165.394 -0.0830587 0)
(165.197 -0.146708 0)
(164.846 -0.258442 0)
(164.201 -0.461554 0)
(162.94 -0.855618 0)
(160.411 -1.64774 0)
(155.351 -3.2352 0)
(145.551 -6.39833 0)
(130.346 -11.5932 0)
(116.056 -17.057 0)
(111.17 -16.2429 0)
(112 -14.6671 0)
(112.541 -12.7915 0)
(113.014 -10.7439 0)
(113.389 -8.69291 0)
(113.736 -6.66583 0)
(114.042 -4.68052 0)
(114.243 -2.81742 0)
(114.351 -1.22087 0)
(114.382 -0.118689 0)
(114.436 0.61322 0)
(114.784 0.909683 0)
(115.616 0.685711 0)
(117.102 -0.0518485 0)
(119.293 -0.882777 0)
(165.65 -4.39198e-09 0)
(165.65 -1.58568e-08 0)
(165.65 -2.96639e-08 0)
(165.65 -4.02249e-08 0)
(165.65 -5.78435e-08 0)
(165.65 -8.28079e-08 0)
(165.65 -1.17825e-07 0)
(165.65 -1.68383e-07 0)
(165.65 -2.42062e-07 0)
(165.65 -3.49961e-07 0)
(165.65 -5.08551e-07 0)
(165.65 -7.4229e-07 0)
(165.65 -1.08746e-06 0)
(165.65 -1.59788e-06 0)
(165.65 -2.35337e-06 0)
(165.65 -3.47238e-06 0)
(165.65 -5.13068e-06 0)
(165.65 -7.58948e-06 0)
(165.65 -1.12391e-05 0)
(165.65 -1.66724e-05 0)
(165.65 -2.48231e-05 0)
(165.65 -3.72465e-05 0)
(165.65 -5.67071e-05 0)
(165.65 -8.83946e-05 0)
(165.65 -0.000142381 0)
(165.649 -0.000238474 0)
(165.649 -0.000415639 0)
(165.648 -0.000749871 0)
(165.646 -0.00138732 0)
(165.642 -0.0026037 0)
(165.635 -0.00490708 0)
(165.621 -0.00920915 0)
(165.596 -0.0171026 0)
(165.551 -0.0313079 0)
(165.471 -0.0564178 0)
(165.332 -0.100248 0)
(165.087 -0.176621 0)
(164.647 -0.312189 0)
(163.82 -0.563891 0)
(162.178 -1.06589 0)
(158.887 -2.07344 0)
(152.312 -4.09102 0)
(140.449 -8.00706 0)
(124.368 -13.4271 0)
(114.236 -17.1771 0)
(113.048 -15.437 0)
(113.675 -14.3676 0)
(114.595 -12.7757 0)
(115.295 -10.8692 0)
(115.68 -8.8856 0)
(115.992 -6.91992 0)
(116.207 -4.99976 0)
(116.193 -3.17724 0)
(115.793 -1.5752 0)
(115.361 -0.490794 0)
(115.154 0.163369 0)
(115.06 0.669178 0)
(115.421 0.885944 0)
(116.375 0.631582 0)
(118.549 -0.000121826 0)
(165.65 -4.61372e-09 0)
(165.65 -1.67001e-08 0)
(165.65 -3.14345e-08 0)
(165.65 -4.3334e-08 0)
(165.65 -6.25755e-08 0)
(165.65 -9.02607e-08 0)
(165.65 -1.29348e-07 0)
(165.65 -1.86069e-07 0)
(165.65 -2.69193e-07 0)
(165.65 -3.91518e-07 0)
(165.65 -5.72071e-07 0)
(165.65 -8.39165e-07 0)
(165.65 -1.23489e-06 0)
(165.65 -1.82181e-06 0)
(165.65 -2.69291e-06 0)
(165.65 -3.98646e-06 0)
(165.65 -5.90799e-06 0)
(165.65 -8.76355e-06 0)
(165.65 -1.3012e-05 0)
(165.65 -1.9355e-05 0)
(165.65 -2.89104e-05 0)
(165.65 -4.35669e-05 0)
(165.65 -6.67274e-05 0)
(165.65 -0.000104835 0)
(165.649 -0.000170435 0)
(165.649 -0.000288199 0)
(165.648 -0.000506508 0)
(165.647 -0.00091926 0)
(165.645 -0.00170575 0)
(165.64 -0.00320122 0)
(165.63 -0.00601691 0)
(165.613 -0.0112376 0)
(165.582 -0.0207398 0)
(165.527 -0.037709 0)
(165.429 -0.0675256 0)
(165.257 -0.119455 0)
(164.954 -0.210322 0)
(164.404 -0.374077 0)
(163.341 -0.686234 0)
(161.215 -1.31658 0)
(156.961 -2.5821 0)
(148.575 -5.11207 0)
(134.864 -9.65423 0)
(119.861 -15.1257 0)
(113.594 -16.0811 0)
(114.478 -15.2429 0)
(115.271 -14.2525 0)
(116.502 -12.7568 0)
(117.446 -10.8413 0)
(117.879 -8.96919 0)
(118.145 -7.1074 0)
(118.282 -5.29284 0)
(118.115 -3.56533 0)
(117.378 -1.97348 0)
(116.323 -0.669307 0)
(115.718 -0.0800003 0)
(115.509 0.393384 0)
(115.543 0.757056 0)
(116.179 0.83114 0)
(117.937 0.551177 0)
(165.65 -4.88226e-09 0)
(165.65 -1.77256e-08 0)
(165.65 -3.34288e-08 0)
(165.65 -4.68207e-08 0)
(165.65 -6.77694e-08 0)
(165.65 -9.81833e-08 0)
(165.65 -1.41631e-07 0)
(165.65 -2.05018e-07 0)
(165.65 -2.98341e-07 0)
(165.65 -4.36237e-07 0)
(165.65 -6.405e-07 0)
(165.65 -9.43622e-07 0)
(165.65 -1.39399e-06 0)
(165.65 -2.06366e-06 0)
(165.65 -3.05993e-06 0)
(165.65 -4.54262e-06 0)
(165.65 -6.74965e-06 0)
(165.65 -1.00359e-05 0)
(165.65 -1.49355e-05 0)
(165.65 -2.22713e-05 0)
(165.65 -3.33694e-05 0)
(165.65 -5.05032e-05 0)
(165.65 -7.78183e-05 0)
(165.65 -0.000123222 0)
(165.649 -0.000202153 0)
(165.649 -0.00034494 0)
(165.648 -0.000610859 0)
(165.646 -0.00111431 0)
(165.643 -0.00207206 0)
(165.637 -0.00388561 0)
(165.625 -0.00727935 0)
(165.604 -0.0135254 0)
(165.566 -0.0248059 0)
(165.498 -0.0448111 0)
(165.378 -0.0797986 0)
(165.169 -0.140723 0)
(164.796 -0.248175 0)
(164.104 -0.445341 0)
(162.743 -0.832797 0)
(160.014 -1.61407 0)
(154.557 -3.18265 0)
(144.228 -6.29671 0)
(128.975 -11.1906 0)
(116.976 -16.0553 0)
(114.178 -15.3129 0)
(115.15 -14.8766 0)
(116.612 -14.0459 0)
(118.483 -12.6 0)
(119.603 -10.7396 0)
(119.917 -9.02665 0)
(120.156 -7.31401 0)
(120.21 -5.62607 0)
(119.937 -3.98773 0)
(119.054 -2.42632 0)
(117.476 -1.01723 0)
(116.324 -0.0920397 0)
(115.946 0.266764 0)
(115.782 0.640837 0)
(116.185 0.887284 0)
(117.531 0.828891 0)
(165.65 -5.18915e-09 0)
(165.65 -1.8891e-08 0)
(165.65 -3.55468e-08 0)
(165.65 -5.04384e-08 0)
(165.65 -7.33598e-08 0)
(165.65 -1.06621e-07 0)
(165.65 -1.54671e-07 0)
(165.65 -2.25152e-07 0)
(165.65 -3.29333e-07 0)
(165.65 -4.83822e-07 0)
(165.65 -7.13377e-07 0)
(165.65 -1.05496e-06 0)
(165.65 -1.5637e-06 0)
(165.65 -2.32188e-06 0)
(165.65 -3.45217e-06 0)
(165.65 -5.13753e-06 0)
(165.65 -7.65072e-06 0)
(165.65 -1.13993e-05 0)
(165.65 -1.69991e-05 0)
(165.65 -2.54064e-05 0)
(165.65 -3.81816e-05 0)
(165.65 -5.80361e-05 0)
(165.65 -8.99698e-05 0)
(165.65 -0.000143578 0)
(165.649 -0.000237629 0)
(165.649 -0.000408938 0)
(165.648 -0.000729163 0)
(165.645 -0.00133575 0)
(165.641 -0.00248707 0)
(165.634 -0.004657 0)
(165.619 -0.00869176 0)
(165.593 -0.0160633 0)
(165.547 -0.0292795 0)
(165.464 -0.0525758 0)
(165.319 -0.0931926 0)
(165.065 -0.164064 0)
(164.606 -0.290544 0)
(163.736 -0.527413 0)
(162.004 -1.00388 0)
(158.534 -1.96174 0)
(151.616 -3.88179 0)
(139.413 -7.58313 0)
(123.678 -12.6092 0)
(115.107 -15.6764 0)
(115.117 -15.0618 0)
(115.919 -14.614 0)
(117.884 -13.6175 0)
(120.278 -12.1741 0)
(121.504 -10.6593 0)
(121.759 -9.09836 0)
(121.99 -7.5604 0)
(122.037 -6.0278 0)
(121.724 -4.49833 0)
(120.725 -2.98374 0)
(118.947 -1.47542 0)
(117.147 -0.0833079 0)
(116.295 0.291575 0)
(116.125 0.682792 0)
(116.37 1.06446 0)
(117.409 1.18203 0)
(165.65 -5.5208e-09 0)
(165.65 -2.0151e-08 0)
(165.65 -3.7747e-08 0)
(165.65 -5.41238e-08 0)
(165.65 -7.92122e-08 0)
(165.65 -1.15479e-07 0)
(165.65 -1.68348e-07 0)
(165.65 -2.46283e-07 0)
(165.65 -3.61877e-07 0)
(165.65 -5.33818e-07 0)
(165.65 -7.89994e-07 0)
(165.65 -1.17209e-06 0)
(165.65 -1.74242e-06 0)
(165.65 -2.59404e-06 0)
(165.65 -3.86599e-06 0)
(165.65 -5.76578e-06 0)
(165.65 -8.60308e-06 0)
(165.65 -1.28415e-05 0)
(165.65 -1.91847e-05 0)
(165.65 -2.87345e-05 0)
(165.65 -4.33113e-05 0)
(165.65 -6.61205e-05 0)
(165.65 -0.00010313 0)
(165.649 -0.000165854 0)
(165.649 -0.000276832 0)
(165.648 -0.000480184 0)
(165.647 -0.000861396 0)
(165.644 -0.00158335 0)
(165.639 -0.00294963 0)
(165.63 -0.00551171 0)
(165.612 -0.0102447 0)
(165.581 -0.0188305 0)
(165.524 -0.0341208 0)
(165.425 -0.0609383 0)
(165.251 -0.107628 0)
(164.943 -0.189478 0)
(164.381 -0.337731 0)
(163.289 -0.622572 0)
(161.104 -1.19949 0)
(156.731 -2.35919 0)
(148.137 -4.68092 0)
(134.235 -8.84302 0)
(119.722 -13.8593 0)
(114.188 -14.7299 0)
(115.41 -14.6898 0)
(116.898 -14.3051 0)
(119.374 -13.2519 0)
(121.848 -11.7704 0)
(123.092 -10.5195 0)
(123.424 -9.13811 0)
(123.625 -7.78827 0)
(123.666 -6.44261 0)
(123.373 -5.0789 0)
(122.468 -3.64948 0)
(120.756 -2.04427 0)
(118.314 -0.434131 0)
(116.798 0.454044 0)
(116.58 0.872106 0)
(116.66 1.31131 0)
(117.404 1.54943 0)
(165.65 -5.86277e-09 0)
(165.65 -2.14667e-08 0)
(165.65 -3.99964e-08 0)
(165.65 -5.78432e-08 0)
(165.65 -8.5239e-08 0)
(165.65 -1.24644e-07 0)
(165.65 -1.82478e-07 0)
(165.65 -2.68123e-07 0)
(165.65 -3.95545e-07 0)
(165.65 -5.85575e-07 0)
(165.65 -8.69363e-07 0)
(165.65 -1.29354e-06 0)
(165.65 -1.92789e-06 0)
(165.65 -2.8768e-06 0)
(165.65 -4.29637e-06 0)
(165.65 -6.41977e-06 0)
(165.65 -9.59526e-06 0)
(165.65 -1.43453e-05 0)
(165.65 -2.14664e-05 0)
(165.65 -3.22178e-05 0)
(165.65 -4.87052e-05 0)
(165.65 -7.46826e-05 0)
(165.65 -0.000117201 0)
(165.649 -0.000189917 0)
(165.649 -0.000319571 0)
(165.648 -0.000558362 0)
(165.646 -0.00100692 0)
(165.643 -0.00185561 0)
(165.637 -0.00345622 0)
(165.625 -0.00644175 0)
(165.604 -0.0119212 0)
(165.566 -0.021794 0)
(165.498 -0.0392715 0)
(165.38 -0.0698076 0)
(165.172 -0.122986 0)
(164.802 -0.216943 0)
(164.112 -0.389993 0)
(162.751 -0.731845 0)
(160.022 -1.42159 0)
(154.563 -2.80755 0)
(144.203 -5.56945 0)
(128.892 -9.98259 0)
(116.971 -14.4939 0)
(114.308 -14.179 0)
(115.449 -14.1125 0)
(117.633 -13.7449 0)
(120.781 -12.83 0)
(123.381 -11.496 0)
(124.487 -10.3293 0)
(124.849 -9.15502 0)
(125.036 -7.99503 0)
(125.098 -6.83759 0)
(124.881 -5.64554 0)
(124.162 -4.36127 0)
(122.595 -2.8662 0)
(119.985 -1.10869 0)
(117.769 0.516604 0)
(117.076 1.12143 0)
(117.041 1.59051 0)
(117.567 1.98411 0)
(165.65 -6.20515e-09 0)
(165.65 -2.28035e-08 0)
(165.65 -4.22641e-08 0)
(165.65 -6.15711e-08 0)
(165.65 -9.13039e-08 0)
(165.65 -1.33959e-07 0)
(165.65 -1.96845e-07 0)
(165.65 -2.90329e-07 0)
(165.65 -4.29796e-07 0)
(165.65 -6.38269e-07 0)
(165.65 -9.50239e-07 0)
(165.65 -1.41741e-06 0)
(165.65 -2.11727e-06 0)
(165.65 -3.16585e-06 0)
(165.65 -4.7368e-06 0)
(165.65 -7.08965e-06 0)
(165.65 -1.06123e-05 0)
(165.65 -1.5888e-05 0)
(165.65 -2.38106e-05 0)
(165.65 -3.58064e-05 0)
(165.65 -5.42908e-05 0)
(165.65 -8.36182e-05 0)
(165.65 -0.00013203 0)
(165.649 -0.000215536 0)
(165.649 -0.000365471 0)
(165.648 -0.000642791 0)
(165.645 -0.00116436 0)
(165.642 -0.00214967 0)
(165.634 -0.00400076 0)
(165.62 -0.00743454 0)
(165.595 -0.0136967 0)
(165.549 -0.0249087 0)
(165.469 -0.0446544 0)
(165.329 -0.079066 0)
(165.082 -0.139116 0)
(164.638 -0.246372 0)
(163.793 -0.44753 0)
(162.11 -0.853114 0)
(158.736 -1.66903 0)
(151.998 -3.30561 0)
(139.927 -6.5003 0)
(124 -11.0017 0)
(114.964 -14.1683 0)
(114.787 -13.937 0)
(115.787 -13.7293 0)
(118.349 -13.0912 0)
(121.953 -12.1901 0)
(124.689 -11.2279 0)
(125.746 -10.1914 0)
(126.066 -9.17718 0)
(126.246 -8.17734 0)
(126.323 -7.18331 0)
(126.176 -6.15988 0)
(125.621 -5.04019 0)
(124.455 -3.70736 0)
(122.171 -1.9762 0)
(119.327 0.102367 0)
(117.82 1.39669 0)
(117.563 1.88498 0)
(117.89 2.45242 0)
(165.65 -6.54255e-09 0)
(165.65 -2.41335e-08 0)
(165.65 -4.45064e-08 0)
(165.65 -6.52782e-08 0)
(165.65 -9.72458e-08 0)
(165.65 -1.43229e-07 0)
(165.65 -2.11179e-07 0)
(165.65 -3.12489e-07 0)
(165.65 -4.63996e-07 0)
(165.65 -6.90928e-07 0)
(165.65 -1.03114e-06 0)
(165.65 -1.54147e-06 0)
(165.65 -2.30716e-06 0)
(165.65 -3.45603e-06 0)
(165.65 -5.17943e-06 0)
(165.65 -7.76348e-06 0)
(165.65 -1.16361e-05 0)
(165.65 -1.74423e-05 0)
(165.65 -2.6176e-05 0)
(165.65 -3.94391e-05 0)
(165.65 -5.99769e-05 0)
(165.65 -9.27909e-05 0)
(165.649 -0.000147408 0)
(165.649 -0.000242376 0)
(165.648 -0.000413946 0)
(165.647 -0.000732375 0)
(165.645 -0.00133157 0)
(165.64 -0.00246112 0)
(165.631 -0.00457438 0)
(165.614 -0.00847275 0)
(165.584 -0.0155388 0)
(165.531 -0.0281172 0)
(165.436 -0.0501741 0)
(165.272 -0.0885678 0)
(164.981 -0.155836 0)
(164.449 -0.27757 0)
(163.419 -0.510943 0)
(161.355 -0.984518 0)
(157.225 -1.93702 0)
(149.045 -3.84729 0)
(135.391 -7.39165 0)
(120.123 -11.8647 0)
(113.672 -13.3505 0)
(114.831 -13.5123 0)
(116.429 -13.3344 0)
(119.344 -12.5384 0)
(122.906 -11.5583 0)
(125.652 -10.8851 0)
(126.814 -10.0915 0)
(127.132 -9.20022 0)
(127.295 -8.34279 0)
(127.383 -7.49272 0)
(127.311 -6.621 0)
(126.948 -5.65834 0)
(126.083 -4.50094 0)
(124.333 -3.0255 0)
(121.607 -0.899778 0)
(119.146 1.2439 0)
(118.162 2.15725 0)
(118.401 2.80883 0)
(165.65 -6.86701e-09 0)
(165.65 -2.54267e-08 0)
(165.65 -4.67052e-08 0)
(165.65 -6.88598e-08 0)
(165.65 -1.0296e-07 0)
(165.65 -1.5223e-07 0)
(165.65 -2.25165e-07 0)
(165.65 -3.3413e-07 0)
(165.65 -4.97418e-07 0)
(165.65 -7.42441e-07 0)
(165.65 -1.11038e-06 0)
(165.65 -1.66314e-06 0)
(165.65 -2.49365e-06 0)
(165.65 -3.74138e-06 0)
(165.65 -5.61519e-06 0)
(165.65 -8.42745e-06 0)
(165.65 -1.26457e-05 0)
(165.65 -1.89763e-05 0)
(165.65 -2.85148e-05 0)
(165.65 -4.30442e-05 0)
(165.65 -6.56554e-05 0)
(165.65 -0.000102034 0)
(165.649 -0.000163068 0)
(165.649 -0.000269981 0)
(165.648 -0.000464181 0)
(165.647 -0.00082557 0)
(165.644 -0.00150551 0)
(165.638 -0.002784 0)
(165.627 -0.00516544 0)
(165.608 -0.0095345 0)
(165.572 -0.0174079 0)
(165.51 -0.0313515 0)
(165.4 -0.0557193 0)
(165.208 -0.0981396 0)
(164.866 -0.172934 0)
(164.232 -0.310224 0)
(162.985 -0.580098 0)
(160.482 -1.12548 0)
(155.471 -2.22244 0)
(145.763 -4.4186 0)
(130.737 -8.17644 0)
(117.223 -12.4336 0)
(113.214 -12.6153 0)
(114.641 -12.8213 0)
(116.94 -12.7208 0)
(120.373 -12.054 0)
(123.834 -11.0576 0)
(126.356 -10.4993 0)
(127.66 -9.94872 0)
(128.052 -9.19463 0)
(128.184 -8.46892 0)
(128.278 -7.75186 0)
(128.26 -7.01848 0)
(128.033 -6.20948 0)
(127.454 -5.24234 0)
(126.283 -3.98705 0)
(124.192 -2.16543 0)
(121.368 0.207954 0)
(119.209 2.03205 0)
(118.904 3.04334 0)
(165.65 -7.17569e-09 0)
(165.65 -2.66555e-08 0)
(165.65 -4.88939e-08 0)
(165.65 -7.21992e-08 0)
(165.65 -1.08301e-07 0)
(165.65 -1.60712e-07 0)
(165.65 -2.38429e-07 0)
(165.65 -3.5471e-07 0)
(165.65 -5.29246e-07 0)
(165.65 -7.91563e-07 0)
(165.65 -1.18606e-06 0)
(165.65 -1.77951e-06 0)
(165.65 -2.67232e-06 0)
(165.65 -4.01516e-06 0)
(165.65 -6.03379e-06 0)
(165.65 -9.06585e-06 0)
(165.65 -1.36171e-05 0)
(165.65 -2.04539e-05 0)
(165.65 -3.07725e-05 0)
(165.65 -4.65395e-05 0)
(165.65 -7.12014e-05 0)
(165.65 -0.000111152 0)
(165.649 -0.000178686 0)
(165.649 -0.000297788 0)
(165.648 -0.000515133 0)
(165.646 -0.000920382 0)
(165.642 -0.00168231 0)
(165.636 -0.00311086 0)
(165.623 -0.00575995 0)
(165.6 -0.0105943 0)
(165.559 -0.0192593 0)
(165.487 -0.0345355 0)
(165.36 -0.0611663 0)
(165.138 -0.107586 0)
(164.739 -0.190138 0)
(163.984 -0.343956 0)
(162.487 -0.652503 0)
(159.482 -1.27356 0)
(153.468 -2.52105 0)
(142.235 -4.99848 0)
(126.195 -8.83203 0)
(115.113 -12.4181 0)
(113.384 -12.1873 0)
(114.507 -12.163 0)
(117.314 -11.9609 0)
(121.259 -11.4164 0)
(124.68 -10.6187 0)
(126.914 -10.1127 0)
(128.298 -9.73662 0)
(128.815 -9.18174 0)
(128.935 -8.55161 0)
(129.033 -7.93953 0)
(129.066 -7.31541 0)
(128.971 -6.64328 0)
(128.617 -5.84488 0)
(127.845 -4.83247 0)
(126.386 -3.41859 0)
(124.002 -1.37648 0)
(121.215 1.07844 0)
(119.931 2.96701 0)
(165.65 -7.46542e-09 0)
(165.65 -2.78133e-08 0)
(165.65 -5.09892e-08 0)
(165.65 -7.52424e-08 0)
(165.65 -1.13124e-07 0)
(165.65 -1.68423e-07 0)
(165.65 -2.50573e-07 0)
(165.65 -3.73634e-07 0)
(165.65 -5.5859e-07 0)
(165.65 -8.36942e-07 0)
(165.65 -1.2561e-06 0)
(165.65 -1.88744e-06 0)
(165.65 -2.83833e-06 0)
(165.65 -4.26998e-06 0)
(165.65 -6.42392e-06 0)
(165.65 -9.66142e-06 0)
(165.65 -1.45241e-05 0)
(165.65 -2.18353e-05 0)
(165.65 -3.28889e-05 0)
(165.65 -4.98336e-05 0)
(165.65 -7.64734e-05 0)
(165.649 -0.000119917 0)
(165.649 -0.000193883 0)
(165.649 -0.000325123 0)
(165.647 -0.000565557 0)
(165.645 -0.00101444 0)
(165.641 -0.00185745 0)
(165.633 -0.0034331 0)
(165.619 -0.00634202 0)
(165.592 -0.0116235 0)
(165.545 -0.0210432 0)
(165.462 -0.037585 0)
(165.317 -0.0663782 0)
(165.061 -0.116693 0)
(164.596 -0.207101 0)
(163.705 -0.378219 0)
(161.922 -0.725473 0)
(158.35 -1.42377 0)
(151.219 -2.82443 0)
(138.539 -5.55155 0)
(122.231 -9.3604 0)
(113.441 -11.8295 0)
(113.628 -11.8451 0)
(114.801 -11.6767 0)
(117.747 -11.1719 0)
(121.917 -10.6595 0)
(125.323 -10.1463 0)
(127.362 -9.72507 0)
(128.72 -9.46054 0)
(129.402 -9.12692 0)
(129.6 -8.59128 0)
(129.686 -8.06684 0)
(129.738 -7.53962 0)
(129.71 -6.98686 0)
(129.52 -6.35636 0)
(129.054 -5.55924 0)
(128.13 -4.46019 0)
(126.57 -2.84614 0)
(123.93 -0.605115 0)
(121.761 2.01342 0)
(165.65 -7.72472e-09 0)
(165.65 -2.88769e-08 0)
(165.65 -5.28053e-08 0)
(165.65 -7.79431e-08 0)
(165.65 -1.17326e-07 0)
(165.65 -1.75144e-07 0)
(165.65 -2.61212e-07 0)
(165.65 -3.9029e-07 0)
(165.65 -5.84513e-07 0)
(165.65 -8.77155e-07 0)
(165.65 -1.31835e-06 0)
(165.65 -1.98361e-06 0)
(165.65 -2.9866e-06 0)
(165.65 -4.49802e-06 0)
(165.65 -6.7736e-06 0)
(165.65 -1.01958e-05 0)
(165.65 -1.53388e-05 0)
(165.65 -2.30782e-05 0)
(165.65 -3.48e-05 0)
(165.65 -5.28283e-05 0)
(165.65 -8.13172e-05 0)
(165.649 -0.000128079 0)
(165.649 -0.000208227 0)
(165.648 -0.00035121 0)
(165.647 -0.000614006 0)
(165.644 -0.00110501 0)
(165.64 -0.00202572 0)
(165.63 -0.00374101 0)
(165.614 -0.00689385 0)
(165.584 -0.0125906 0)
(165.53 -0.0227051 0)
(165.435 -0.0404088 0)
(165.27 -0.0712054 0)
(164.977 -0.125229 0)
(164.44 -0.223391 0)
(163.392 -0.412934 0)
(161.292 -0.797523 0)
(157.087 -1.57128 0)
(148.754 -3.1228 0)
(134.747 -6.03125 0)
(119.022 -9.73288 0)
(112.338 -11.063 0)
(113.55 -11.2679 0)
(115.286 -11.1571 0)
(118.429 -10.5151 0)
(122.432 -9.92231 0)
(125.747 -9.61117 0)
(127.698 -9.31182 0)
(128.981 -9.12235 0)
(129.808 -8.94911 0)
(130.146 -8.59979 0)
(130.233 -8.14382 0)
(130.3 -7.69438 0)
(130.322 -7.23252 0)
(130.247 -6.72537 0)
(130.012 -6.09968 0)
(129.477 -5.26363 0)
(128.46 -4.06712 0)
(126.492 -2.41736 0)
(124.471 0.238909 0)
(165.65 -7.95089e-09 0)
(165.65 -2.97762e-08 0)
(165.65 -5.42512e-08 0)
(165.65 -8.01661e-08 0)
(165.65 -1.20777e-07 0)
(165.65 -1.80654e-07 0)
(165.65 -2.69971e-07 0)
(165.65 -4.04079e-07 0)
(165.65 -6.06078e-07 0)
(165.65 -9.1076e-07 0)
(165.65 -1.37058e-06 0)
(165.65 -2.06462e-06 0)
(165.65 -3.11191e-06 0)
(165.65 -4.69127e-06 0)
(165.65 -7.07052e-06 0)
(165.65 -1.06503e-05 0)
(165.65 -1.60326e-05 0)
(165.65 -2.41391e-05 0)
(165.65 -3.64395e-05 0)
(165.65 -5.54214e-05 0)
(165.65 -8.55698e-05 0)
(165.649 -0.000135365 0)
(165.649 -0.000221239 0)
(165.648 -0.000375176 0)
(165.647 -0.000658846 0)
(165.644 -0.00118899 0)
(165.638 -0.00218133 0)
(165.628 -0.00402388 0)
(165.609 -0.0073962 0)
(165.574 -0.0134618 0)
(165.513 -0.0241879 0)
(165.407 -0.0429125 0)
(165.22 -0.0754909 0)
(164.887 -0.132944 0)
(164.268 -0.23853 0)
(163.048 -0.446717 0)
(160.6 -0.866858 0)
(155.698 -1.71223 0)
(146.122 -3.40579 0)
(130.96 -6.40362 0)
(116.515 -9.89502 0)
(111.806 -10.3103 0)
(113.353 -10.5504 0)
(115.691 -10.4954 0)
(119.162 -9.93954 0)
(122.949 -9.26779 0)
(126.02 -9.03796 0)
(127.922 -8.85757 0)
(129.136 -8.72963 0)
(130 -8.65361 0)
(130.521 -8.50584 0)
(130.722 -8.18739 0)
(130.78 -7.78826 0)
(130.818 -7.39466 0)
(130.816 -6.98139 0)
(130.725 -6.50216 0)
(130.448 -5.89611 0)
(129.87 -5.0511 0)
(128.571 -3.85005 0)
(127.202 -1.66535 0)
(165.65 -8.12911e-09 0)
(165.65 -3.04399e-08 0)
(165.65 -5.52778e-08 0)
(165.65 -8.17787e-08 0)
(165.65 -1.23304e-07 0)
(165.65 -1.8472e-07 0)
(165.65 -2.76484e-07 0)
(165.65 -4.14417e-07 0)
(165.65 -6.22379e-07 0)
(165.65 -9.36351e-07 0)
(165.65 -1.41063e-06 0)
(165.65 -2.12711e-06 0)
(165.65 -3.20908e-06 0)
(165.65 -4.84176e-06 0)
(165.65 -7.30247e-06 0)
(165.65 -1.10061e-05 0)
(165.65 -1.6577e-05 0)
(165.65 -2.4975e-05 0)
(165.65 -3.77415e-05 0)
(165.65 -5.75097e-05 0)
(165.65 -8.90638e-05 0)
(165.649 -0.00014149 0)
(165.649 -0.000232414 0)
(165.648 -0.000396087 0)
(165.646 -0.00069832 0)
(165.643 -0.00126308 0)
(165.636 -0.00231811 0)
(165.625 -0.00427052 0)
(165.603 -0.00782926 0)
(165.564 -0.0142033 0)
(165.496 -0.0254345 0)
(165.376 -0.0450015 0)
(165.167 -0.0790762 0)
(164.791 -0.139563 0)
(164.081 -0.252031 0)
(162.674 -0.477175 0)
(159.848 -0.930242 0)
(154.192 -1.84121 0)
(143.388 -3.66162 0)
(127.302 -6.6542 0)
(114.612 -9.78612 0)
(111.723 -9.65604 0)
(113.138 -9.78942 0)
(115.999 -9.77155 0)
(119.847 -9.32166 0)
(123.464 -8.67742 0)
(126.217 -8.45763 0)
(128.052 -8.36371 0)
(129.217 -8.29182 0)
(130.066 -8.27253 0)
(130.681 -8.24066 0)
(131.056 -8.11666 0)
(131.208 -7.84897 0)
(131.247 -7.50014 0)
(131.269 -7.14819 0)
(131.254 -6.77285 0)
(131.133 -6.33051 0)
(130.834 -5.74832 0)
(130.093 -4.9406 0)
(129.338 -3.34229 0)
(165.65 -8.23475e-09 0)
(165.65 -3.08233e-08 0)
(165.65 -5.58213e-08 0)
(165.65 -8.26777e-08 0)
(165.65 -1.24739e-07 0)
(165.65 -1.87098e-07 0)
(165.65 -2.8039e-07 0)
(165.65 -4.20752e-07 0)
(165.65 -6.32556e-07 0)
(165.65 -9.52595e-07 0)
(165.65 -1.43643e-06 0)
(165.65 -2.16787e-06 0)
(165.65 -3.27316e-06 0)
(165.65 -4.94185e-06 0)
(165.65 -7.45774e-06 0)
(165.65 -1.12454e-05 0)
(165.65 -1.69449e-05 0)
(165.65 -2.55443e-05 0)
(165.65 -3.86422e-05 0)
(165.65 -5.89924e-05 0)
(165.649 -9.1633e-05 0)
(165.649 -0.000146167 0)
(165.649 -0.000241231 0)
(165.648 -0.000412977 0)
(165.646 -0.000730616 0)
(165.642 -0.00132389 0)
(165.635 -0.00242983 0)
(165.621 -0.00446973 0)
(165.597 -0.00817352 0)
(165.554 -0.0147818 0)
(165.478 -0.0263894 0)
(165.345 -0.0465838 0)