/*--------------------------------*- C++ -*----------------------------------*\
  =========                 |
  \\      /  F ield         | OpenFOAM: The Open Source CFD Toolbox
   \\    /   O peration     | Website:  https://openfoam.org
    \\  /    A nd           | Version:  9
     \\/     M anipulation  |
\*---------------------------------------------------------------------------*/
FoamFile
{
    format      ascii;
    class       volScalarField;
    location    "0.005";
    object      alphat;
}
// * * * * * * * * * * * * * * * * * * * * * * * * * * * * * * * * * * * * * //

dimensions      [1 -1 -1 0 0 0 0];

internalField   nonuniform List<scalar> 
36400
(
7.99873e-06
7.96338e-06
7.92955e-06
7.89713e-06
7.86604e-06
7.83618e-06
7.80751e-06
7.77998e-06
7.75357e-06
7.72828e-06
7.70413e-06
7.68116e-06
7.65943e-06
7.63901e-06
7.61994e-06
7.60228e-06
7.58601e-06
7.57113e-06
7.55757e-06
7.54523e-06
7.53398e-06
7.52369e-06
7.51423e-06
7.50547e-06
7.4973e-06
7.48965e-06
7.48244e-06
7.47561e-06
7.46908e-06
7.46276e-06
7.45654e-06
7.45032e-06
7.44399e-06
7.43745e-06
7.4307e-06
7.42374e-06
7.41669e-06
7.40969e-06
7.40293e-06
7.39662e-06
7.39093e-06
7.38604e-06
7.38207e-06
7.3791e-06
7.37722e-06
7.37654e-06
7.37738e-06
7.38036e-06
7.38685e-06
7.39959e-06
7.42479e-06
7.47772e-06
7.59299e-06
7.8509e-06
8.41362e-06
9.35722e-06
1.03564e-05
1.05939e-05
1.06827e-05
1.07595e-05
7.99873e-06
7.96338e-06
7.92955e-06
7.89713e-06
7.86603e-06
7.83617e-06
7.8075e-06
7.77995e-06
7.75351e-06
7.72817e-06
7.70396e-06
7.68089e-06
7.65904e-06
7.63844e-06
7.61917e-06
7.60126e-06
7.58474e-06
7.56958e-06
7.55577e-06
7.54321e-06
7.53181e-06
7.52147e-06
7.51208e-06
7.50353e-06
7.49573e-06
7.4886e-06
7.48207e-06
7.47605e-06
7.47046e-06
7.46519e-06
7.46012e-06
7.45512e-06
7.45004e-06
7.44481e-06
7.43936e-06
7.43369e-06
7.42788e-06
7.42206e-06
7.41639e-06
7.41106e-06
7.40624e-06
7.40211e-06
7.39879e-06
7.39641e-06
7.3951e-06
7.39509e-06
7.39681e-06
7.40115e-06
7.40989e-06
7.42673e-06
7.4607e-06
7.5327e-06
7.68931e-06
8.03257e-06
8.68665e-06
9.54086e-06
9.97493e-06
1.00077e-05
1.00252e-05
1.00664e-05
7.99873e-06
7.96338e-06
7.92955e-06
7.89713e-06
7.86602e-06
7.83616e-06
7.80746e-06
7.77989e-06
7.7534e-06
7.72799e-06
7.70366e-06
7.68043e-06
7.65835e-06
7.63746e-06
7.61782e-06
7.59948e-06
7.58247e-06
7.56681e-06
7.55249e-06
7.53949e-06
7.52777e-06
7.51725e-06
7.50788e-06
7.4996e-06
7.49232e-06
7.48599e-06
7.48053e-06
7.47584e-06
7.47181e-06
7.46832e-06
7.46519e-06
7.46226e-06
7.45936e-06
7.45636e-06
7.45316e-06
7.44972e-06
7.44606e-06
7.44227e-06
7.43847e-06
7.43481e-06
7.43147e-06
7.42861e-06
7.42637e-06
7.42493e-06
7.4245e-06
7.42545e-06
7.42845e-06
7.43476e-06
7.44684e-06
7.47008e-06
7.51768e-06
7.61905e-06
7.84041e-06
8.30587e-06
9.00607e-06
9.63699e-06
9.79607e-06
9.83315e-06
9.87723e-06
9.91047e-06
7.99873e-06
7.96338e-06
7.92955e-06
7.89712e-06
7.86602e-06
7.83614e-06
7.80743e-06
7.77982e-06
7.75328e-06
7.72778e-06
7.70331e-06
7.67989e-06
7.65753e-06
7.63629e-06
7.6162e-06
7.59732e-06
7.5797e-06
7.56338e-06
7.54839e-06
7.53475e-06
7.52249e-06
7.51159e-06
7.50206e-06
7.49387e-06
7.487e-06
7.4814e-06
7.477e-06
7.4737e-06
7.47136e-06
7.46981e-06
7.46885e-06
7.46828e-06
7.46787e-06
7.46743e-06
7.46681e-06
7.46593e-06
7.46473e-06
7.46326e-06
7.4616e-06
7.45985e-06
7.45817e-06
7.45672e-06
7.45567e-06
7.45526e-06
7.45581e-06
7.45788e-06
7.46244e-06
7.47128e-06
7.488e-06
7.52076e-06
7.58937e-06
7.73745e-06
8.05878e-06
8.65303e-06
9.38293e-06
9.64834e-06
9.67829e-06
9.72823e-06
9.79485e-06
9.8656e-06
7.99873e-06
7.96338e-06
7.92955e-06
7.89712e-06
7.86601e-06
7.83612e-06
7.80739e-06
7.77976e-06
7.75316e-06
7.72758e-06
7.70299e-06
7.67938e-06
7.65677e-06
7.63518e-06
7.61465e-06
7.59522e-06
7.57697e-06
7.55994e-06
7.54421e-06
7.52983e-06
7.51688e-06
7.50541e-06
7.49549e-06
7.48713e-06
7.48036e-06
7.47517e-06
7.4715e-06
7.46924e-06
7.46824e-06
7.46831e-06
7.46921e-06
7.47068e-06
7.47245e-06
7.47428e-06
7.47597e-06
7.47735e-06
7.47835e-06
7.47894e-06
7.47915e-06
7.47908e-06
7.47885e-06
7.47862e-06
7.47861e-06
7.47912e-06
7.48062e-06
7.48388e-06
7.49027e-06
7.50232e-06
7.52536e-06
7.57214e-06
7.67148e-06
7.88823e-06
8.34144e-06
9.0075e-06
9.54859e-06
9.60438e-06
9.61387e-06
9.63907e-06
9.6926e-06
9.7788e-06
7.99873e-06
7.96338e-06
7.92954e-06
7.89712e-06
7.866e-06
7.83611e-06
7.80737e-06
7.77971e-06
7.75307e-06
7.72743e-06
7.70273e-06
7.67897e-06
7.65615e-06
7.63427e-06
7.61337e-06
7.59348e-06
7.57467e-06
7.55701e-06
7.54058e-06
7.52549e-06
7.51183e-06
7.49971e-06
7.48923e-06
7.48049e-06
7.47352e-06
7.46836e-06
7.46497e-06
7.46326e-06
7.46306e-06
7.46416e-06
7.4663e-06
7.46917e-06
7.47247e-06
7.47591e-06
7.47924e-06
7.48225e-06
7.48481e-06
7.48687e-06
7.48843e-06
7.48956e-06
7.49036e-06
7.49102e-06
7.4918e-06
7.4931e-06
7.49553e-06
7.50014e-06
7.50878e-06
7.52504e-06
7.55697e-06
7.6238e-06
7.76808e-06
8.08176e-06
8.66282e-06
9.36299e-06
9.55056e-06
9.5466e-06
9.54859e-06
9.55886e-06
9.5847e-06
9.63832e-06
7.99873e-06
7.96338e-06
7.92954e-06
7.89712e-06
7.866e-06
7.8361e-06
7.80735e-06
7.77967e-06
7.75301e-06
7.72732e-06
7.70255e-06
7.67869e-06
7.65572e-06
7.63363e-06
7.61245e-06
7.59222e-06
7.57299e-06
7.55484e-06
7.53785e-06
7.52216e-06
7.50788e-06
7.49516e-06
7.48412e-06
7.47489e-06
7.46757e-06
7.46219e-06
7.45875e-06
7.45716e-06
7.45726e-06
7.45884e-06
7.4616e-06
7.46523e-06
7.46939e-06
7.47375e-06
7.47802e-06
7.48199e-06
7.48548e-06
7.48841e-06
7.49077e-06
7.49262e-06
7.49407e-06
7.49533e-06
7.49672e-06
7.49873e-06
7.50217e-06
7.50841e-06
7.51995e-06
7.54199e-06
7.58684e-06
7.68214e-06
7.89038e-06
8.32988e-06
8.98609e-06
9.53196e-06
9.51993e-06
9.5017e-06
9.47681e-06
9.45729e-06
9.4696e-06
9.49767e-06
7.99873e-06
7.96338e-06
7.92954e-06
7.89712e-06
7.866e-06
7.8361e-06
7.80734e-06
7.77965e-06
7.75298e-06
7.72725e-06
7.70245e-06
7.67852e-06
7.65545e-06
7.63323e-06
7.61188e-06
7.59142e-06
7.5719e-06
7.55341e-06
7.53604e-06
7.51991e-06
7.50517e-06
7.49197e-06
7.48047e-06
7.47081e-06
7.46311e-06
7.45742e-06
7.45377e-06
7.45207e-06
7.45217e-06
7.45386e-06
7.45683e-06
7.46076e-06
7.46528e-06
7.47005e-06
7.47478e-06
7.4792e-06
7.48315e-06
7.48652e-06
7.4893e-06
7.49153e-06
7.49337e-06
7.49505e-06
7.49696e-06
7.49972e-06
7.50435e-06
7.51263e-06
7.528e-06
7.55808e-06
7.62098e-06
7.75662e-06
8.05291e-06
8.62094e-06
9.3167e-06
9.52376e-06
9.50814e-06
9.47372e-06
9.40904e-06
9.34575e-06
9.35361e-06
9.3761e-06
7.99873e-06
7.96338e-06
7.92954e-06
7.89712e-06
7.866e-06
7.8361e-06
7.80734e-06
7.77964e-06
7.75296e-06
7.72722e-06
7.70239e-06
7.67842e-06
7.6553e-06
7.633e-06
7.61155e-06
7.59095e-06
7.57127e-06
7.55257e-06
7.53496e-06
7.51856e-06
7.50351e-06
7.49e-06
7.47817e-06
7.46818e-06
7.46017e-06
7.45422e-06
7.45033e-06
7.44846e-06
7.44845e-06
7.45007e-06
7.45305e-06
7.45703e-06
7.46165e-06
7.46656e-06
7.47144e-06
7.47604e-06
7.48018e-06
7.48374e-06
7.48671e-06
7.48916e-06
7.49126e-06
7.49329e-06
7.49572e-06
7.49932e-06
7.50538e-06
7.51624e-06
7.53673e-06
7.57821e-06
7.66599e-06
7.85769e-06
8.26843e-06
8.92343e-06
9.53835e-06
9.52454e-06
9.49659e-06
9.44465e-06
9.33789e-06
9.26539e-06
9.2638e-06
9.26825e-06
7.99873e-06
7.96338e-06
7.92954e-06
7.89712e-06
7.866e-06
7.83609e-06
7.80733e-06
7.77964e-06
7.75295e-06
7.7272e-06
7.70236e-06
7.67837e-06
7.65522e-06
7.63289e-06
7.61138e-06
7.59071e-06
7.57094e-06
7.55213e-06
7.53438e-06
7.51782e-06
7.5026e-06
7.48889e-06
7.47686e-06
7.46667e-06
7.45846e-06
7.45231e-06
7.44825e-06
7.44622e-06
7.44608e-06
7.44761e-06
7.45052e-06
7.45446e-06
7.45908e-06
7.464e-06
7.46892e-06
7.47357e-06
7.47777e-06
7.48141e-06
7.48448e-06
7.48708e-06
7.48939e-06
7.49176e-06
7.49477e-06
7.49935e-06
7.50716e-06
7.52131e-06
7.54867e-06
7.60549e-06
7.72737e-06
7.99466e-06
8.53275e-06
9.22554e-06
9.55775e-06
9.54006e-06
9.49544e-06
9.39983e-06
9.27971e-06
9.21193e-06
9.1866e-06
9.19085e-06
7.99873e-06
7.96338e-06
7.92954e-06
7.89712e-06
7.86599e-06
7.83609e-06
7.80733e-06
7.77964e-06
7.75294e-06
7.72719e-06
7.70234e-06
7.67835e-06
7.65518e-06
7.63283e-06
7.6113e-06
7.5906e-06
7.57078e-06
7.55191e-06
7.53409e-06
7.51746e-06
7.50214e-06
7.48833e-06
7.47619e-06
7.46588e-06
7.45755e-06
7.45128e-06
7.44711e-06
7.44498e-06
7.44475e-06
7.4462e-06
7.44905e-06
7.45294e-06
7.45752e-06
7.46243e-06
7.46734e-06
7.47199e-06
7.47621e-06
7.47989e-06
7.48303e-06
7.48575e-06
7.48828e-06
7.49103e-06
7.4947e-06
7.50046e-06
7.51041e-06
7.5288e-06
7.56557e-06
7.64282e-06
7.81078e-06
8.17567e-06
8.81765e-06
9.51092e-06
9.55342e-06
9.52922e-06
9.47112e-06
9.36158e-06
9.24124e-06
9.17188e-06
9.14179e-06
9.13557e-06
7.99873e-06
7.96338e-06
7.92954e-06
7.89712e-06
7.86599e-06
7.83609e-06
7.80733e-06
7.77963e-06
7.75294e-06
7.72719e-06
7.70234e-06
7.67834e-06
7.65517e-06
7.63281e-06
7.61126e-06
7.59055e-06
7.57071e-06
7.55182e-06
7.53397e-06
7.51729e-06
7.50193e-06
7.48807e-06
7.47587e-06
7.46551e-06
7.45711e-06
7.45078e-06
7.44655e-06
7.44436e-06
7.44407e-06
7.44548e-06
7.44828e-06
7.45214e-06
7.45669e-06
7.46157e-06
7.46647e-06
7.47112e-06
7.47535e-06
7.47907e-06
7.48228e-06
7.48513e-06
7.48791e-06
7.4911e-06
7.49556e-06
7.50272e-06
7.51532e-06
7.53921e-06
7.58825e-06
7.69258e-06
7.92149e-06
8.40324e-06
9.10234e-06
9.60989e-06
9.59102e-06
9.53989e-06
9.43559e-06
9.31031e-06
9.21294e-06
9.14701e-06
9.11194e-06
9.09901e-06
7.99873e-06
7.96338e-06
7.92954e-06
7.89712e-06
7.86599e-06
7.83609e-06
7.80733e-06
7.77963e-06
7.75294e-06
7.72719e-06
7.70233e-06
7.67834e-06
7.65516e-06
7.6328e-06
7.61125e-06
7.59053e-06
7.57068e-06
7.55178e-06
7.53391e-06
7.51722e-06
7.50184e-06
7.48796e-06
7.47573e-06
7.46534e-06
7.45692e-06
7.45056e-06
7.44629e-06
7.44407e-06
7.44376e-06
7.44514e-06
7.44791e-06
7.45175e-06
7.45628e-06
7.46116e-06
7.46605e-06
7.47071e-06
7.47495e-06
7.4787e-06
7.482e-06
7.48501e-06
7.48807e-06
7.49178e-06
7.49716e-06
7.50601e-06
7.52192e-06
7.55308e-06
7.61791e-06
7.7577e-06
8.06429e-06
8.66084e-06
9.3764e-06
9.60991e-06
9.58732e-06
9.53141e-06
9.41321e-06
9.27226e-06
9.18716e-06
9.13031e-06
9.09211e-06
9.07249e-06
7.99873e-06
7.96338e-06
7.92954e-06
7.89712e-06
7.86599e-06
7.83609e-06
7.80733e-06
7.77963e-06
7.75294e-06
7.72719e-06
7.70233e-06
7.67833e-06
7.65516e-06
7.6328e-06
7.61124e-06
7.59052e-06
7.57067e-06
7.55176e-06
7.53389e-06
7.51719e-06
7.50181e-06
7.48791e-06
7.47568e-06
7.46527e-06
7.45684e-06
7.45046e-06
7.44619e-06
7.44395e-06
7.44362e-06
7.44499e-06
7.44775e-06
7.45158e-06
7.45611e-06
7.46098e-06
7.46587e-06
7.47053e-06
7.4748e-06
7.47861e-06
7.482e-06
7.4852e-06
7.4886e-06
7.49291e-06
7.49938e-06
7.51026e-06
7.53033e-06
7.57076e-06
7.65581e-06
7.8414e-06
8.2432e-06
8.92465e-06
9.60819e-06
9.60518e-06
9.57795e-06
9.50903e-06
9.38246e-06
9.25125e-06
9.16752e-06
9.11684e-06
9.07923e-06
9.05437e-06
7.99873e-06
7.96338e-06
7.92954e-06
7.89712e-06
7.86599e-06
7.83609e-06
7.80733e-06
7.77963e-06
7.75294e-06
7.72719e-06
7.70233e-06
7.67833e-06
7.65516e-06
7.63279e-06
7.61124e-06
7.59052e-06
7.57066e-06
7.55175e-06
7.53388e-06
7.51718e-06
7.50179e-06
7.48789e-06
7.47566e-06
7.46525e-06
7.45681e-06
7.45043e-06
7.44614e-06
7.4439e-06
7.44357e-06
7.44493e-06
7.44769e-06
7.45151e-06
7.45604e-06
7.46091e-06
7.46581e-06
7.47049e-06
7.47478e-06
7.47865e-06
7.48217e-06
7.48558e-06
7.48937e-06
7.49439e-06
7.50213e-06
7.51547e-06
7.54076e-06
7.59271e-06
7.70339e-06
7.94662e-06
8.45581e-06
9.18147e-06
9.67313e-06
9.64993e-06
9.59275e-06
9.46417e-06
9.33964e-06
9.23459e-06
9.1562e-06
9.10646e-06
9.07056e-06
9.04301e-06
7.99873e-06
7.96338e-06
7.92954e-06
7.89712e-06
7.86599e-06
7.83609e-06
7.80733e-06
7.77963e-06
7.75294e-06
7.72719e-06
7.70233e-06
7.67833e-06
7.65516e-06
7.63279e-06
7.61124e-06
7.59051e-06
7.57066e-06
7.55175e-06
7.53388e-06
7.51718e-06
7.50179e-06
7.48789e-06
7.47565e-06
7.46524e-06
7.45679e-06
7.45041e-06
7.44613e-06
7.44388e-06
7.44355e-06
7.44491e-06
7.44767e-06
7.45149e-06
7.45602e-06
7.46089e-06
7.4658e-06
7.47049e-06
7.47483e-06
7.47877e-06
7.48243e-06
7.48609e-06
7.49034e-06
7.49616e-06
7.50539e-06
7.5217e-06
7.55362e-06
7.61979e-06
7.7624e-06
8.07558e-06
8.68723e-06
9.42013e-06
9.6729e-06
9.64872e-06
9.58482e-06
9.44815e-06
9.30529e-06
9.21687e-06
9.14962e-06
9.10021e-06
9.06479e-06
9.03595e-06
7.99873e-06
7.96338e-06
7.92954e-06
7.89712e-06
7.86599e-06
7.83609e-06
7.80733e-06
7.77963e-06
7.75294e-06
7.72719e-06
7.70233e-06
7.67833e-06
7.65516e-06
7.63279e-06
7.61124e-06
7.59051e-06
7.57066e-06
7.55175e-06
7.53388e-06
7.51718e-06
7.50179e-06
7.48789e-06
7.47565e-06
7.46523e-06
7.45679e-06
7.45041e-06
7.44612e-06
7.44388e-06
7.44354e-06
7.4449e-06
7.44766e-06
7.45149e-06
7.45601e-06
7.46089e-06
7.46581e-06
7.47053e-06
7.47492e-06
7.47894e-06
7.48276e-06
7.48671e-06
7.49146e-06
7.49821e-06
7.50917e-06
7.52908e-06
7.56895e-06
7.65249e-06
7.83451e-06
8.23e-06
8.9205e-06
9.62665e-06
9.65835e-06
9.63021e-06
9.56223e-06
9.43251e-06
9.28637e-06
9.20132e-06
9.14415e-06
9.09739e-06
9.06137e-06
9.03218e-06
7.99873e-06
7.96338e-06
7.92954e-06
7.89712e-06
7.86599e-06
7.83609e-06
7.80733e-06
7.77963e-06
7.75294e-06
7.72719e-06
7.70233e-06
7.67833e-06
7.65516e-06
7.63279e-06
7.61124e-06
7.59051e-06
7.57066e-06
7.55175e-06
7.53388e-06
7.51718e-06
7.50179e-06
7.48789e-06
7.47564e-06
7.46523e-06
7.45679e-06
7.45041e-06
7.44612e-06
7.44388e-06
7.44354e-06
7.4449e-06
7.44766e-06
7.45149e-06
7.45602e-06
7.4609e-06
7.46584e-06
7.47059e-06
7.47502e-06
7.47915e-06
7.48314e-06
7.48741e-06
7.49274e-06
7.50053e-06
7.51352e-06
7.53773e-06
7.58702e-06
7.69149e-06
7.92086e-06
8.40784e-06
9.14426e-06
9.72002e-06
9.69926e-06
9.62366e-06
9.52395e-06
9.39823e-06
9.27503e-06
9.19139e-06
9.13911e-06
9.09645e-06
9.06027e-06
9.03169e-06
7.99873e-06
7.96338e-06
7.92954e-06
7.89712e-06
7.86599e-06
7.83609e-06
7.80733e-06
7.77963e-06
7.75294e-06
7.72719e-06
7.70233e-06
7.67833e-06
7.65516e-06
7.63279e-06
7.61124e-06
7.59051e-06
7.57066e-06
7.55175e-06
7.53388e-06
7.51718e-06
7.50179e-06
7.48789e-06
7.47564e-06
7.46523e-06
7.45679e-06
7.45041e-06
7.44612e-06
7.44388e-06
7.44354e-06
7.4449e-06
7.44766e-06
7.45149e-06
7.45603e-06
7.46092e-06
7.46587e-06
7.47065e-06
7.47514e-06
7.47938e-06
7.48357e-06
7.4882e-06
7.49417e-06
7.50313e-06
7.51845e-06
7.54786e-06
7.60825e-06
7.73752e-06
8.02196e-06
8.60001e-06
9.3541e-06
9.73576e-06
9.70979e-06
9.63988e-06
9.48803e-06
9.36217e-06
9.26338e-06
9.18639e-06
9.13543e-06
9.0963e-06
9.0611e-06
9.03267e-06
7.99873e-06
7.96338e-06
7.92954e-06
7.89712e-06
7.86599e-06
7.83609e-06
7.80733e-06
7.77963e-06
7.75294e-06
7.72719e-06
7.70233e-06
7.67833e-06
7.65516e-06
7.63279e-06
7.61124e-06
7.59051e-06
7.57066e-06
7.55175e-06
7.53388e-06
7.51718e-06
7.50179e-06
7.48789e-06
7.47564e-06
7.46523e-06
7.45679e-06
7.45041e-06
7.44612e-06
7.44388e-06
7.44354e-06
7.4449e-06
7.44767e-06
7.4515e-06
7.45604e-06
7.46094e-06
7.46591e-06
7.47072e-06
7.47528e-06
7.47964e-06
7.48405e-06
7.48907e-06
7.49573e-06
7.506e-06
7.52402e-06
7.55936e-06
7.63262e-06
7.79103e-06
8.13818e-06
8.79491e-06
9.53883e-06
9.72723e-06
9.70004e-06
9.62815e-06
9.47825e-06
9.33539e-06
9.25032e-06
9.18359e-06
9.13368e-06
9.09661e-06
9.06277e-06
9.03443e-06
7.99873e-06
7.96338e-06
7.92954e-06
7.89712e-06
7.86599e-06
7.83609e-06
7.80733e-06
7.77963e-06
7.75294e-06
7.72719e-06
7.70233e-06
7.67833e-06
7.65516e-06
7.63279e-06
7.61124e-06
7.59051e-06
7.57066e-06
7.55175e-06
7.53388e-06
7.51718e-06
7.50179e-06
7.48789e-06
7.47564e-06
7.46523e-06
7.45679e-06
7.45041e-06
7.44612e-06
7.44388e-06
7.44355e-06
7.44491e-06
7.44767e-06
7.4515e-06
7.45605e-06
7.46096e-06
7.46595e-06
7.4708e-06
7.47544e-06
7.47992e-06
7.48457e-06
7.49001e-06
7.49743e-06
7.50915e-06
7.53021e-06
7.57228e-06
7.66028e-06
7.85214e-06
8.26806e-06
8.98331e-06
9.6902e-06
9.70984e-06
9.68103e-06
9.6094e-06
9.4668e-06
9.31977e-06
9.23842e-06
9.18106e-06
9.13352e-06
9.09737e-06
9.06563e-06
9.03761e-06
7.99873e-06
7.96338e-06
7.92954e-06
7.89712e-06
7.86599e-06
7.83609e-06
7.80733e-06
7.77963e-06
7.75294e-06
7.72719e-06
7.70233e-06
7.67833e-06
7.65516e-06
7.63279e-06
7.61124e-06
7.59051e-06
7.57066e-06
7.55175e-06
7.53388e-06
7.51718e-06
7.50179e-06
7.48789e-06
7.47564e-06
7.46523e-06
7.45679e-06
7.45041e-06
7.44612e-06
7.44388e-06
7.44355e-06
7.44491e-06
7.44767e-06
7.45151e-06
7.45606e-06
7.46098e-06
7.46599e-06
7.47089e-06
7.4756e-06
7.48023e-06
7.48512e-06
7.49101e-06
7.49924e-06
7.51256e-06
7.53711e-06
7.58661e-06
7.69108e-06
7.92034e-06
8.40868e-06
9.15956e-06
9.76647e-06
9.74216e-06
9.66035e-06
9.57738e-06
9.44428e-06
9.3107e-06
9.22971e-06
9.17836e-06
9.13425e-06
9.09872e-06
9.06826e-06
9.04078e-06
7.99873e-06
7.96338e-06
7.92954e-06
7.89712e-06
7.86599e-06
7.83609e-06
7.80733e-06
7.77963e-06
7.75294e-06
7.72719e-06
7.70233e-06
7.67833e-06
7.65516e-06
7.63279e-06
7.61124e-06
7.59051e-06
7.57066e-06
7.55175e-06
7.53388e-06
7.51718e-06
7.50179e-06
7.48789e-06
7.47565e-06
7.46523e-06
7.45679e-06
7.45041e-06
7.44612e-06
7.44388e-06
7.44355e-06
7.44491e-06
7.44768e-06
7.45152e-06
7.45607e-06
7.46101e-06
7.46604e-06
7.47098e-06
7.47578e-06
7.48055e-06
7.48571e-06
7.49206e-06
7.50116e-06
7.51622e-06
7.54458e-06
7.60226e-06
7.72502e-06
7.99503e-06
8.55401e-06
9.32251e-06
9.78787e-06
9.7568e-06
9.67898e-06
9.53806e-06
9.41754e-06
9.30333e-06
9.22432e-06
9.1759e-06
9.13533e-06
9.10039e-06
9.07084e-06
9.04388e-06
7.99873e-06
7.96338e-06
7.92954e-06
7.89712e-06
7.86599e-06
7.83609e-06
7.80733e-06
7.77963e-06
7.75294e-06
7.72719e-06
7.70233e-06
7.67833e-06
7.65516e-06
7.63279e-06
7.61124e-06
7.59051e-06
7.57066e-06
7.55175e-06
7.53388e-06
7.51718e-06
7.50179e-06
7.48789e-06
7.47565e-06
7.46523e-06
7.45679e-06
7.45041e-06
7.44612e-06
7.44388e-06
7.44355e-06
7.44491e-06
7.44768e-06
7.45152e-06
7.45609e-06
7.46104e-06
7.4661e-06
7.47108e-06
7.47596e-06
7.48088e-06
7.48631e-06
7.49315e-06
7.50316e-06
7.52007e-06
7.55252e-06
7.619e-06
7.76166e-06
8.07522e-06
8.69754e-06
9.46865e-06
9.78895e-06
9.75965e-06
9.68381e-06
9.51409e-06
9.39224e-06
9.2956e-06
9.22137e-06
9.17411e-06
9.13648e-06
9.10256e-06
9.07351e-06
9.04743e-06
7.99873e-06
7.96338e-06
7.92954e-06
7.89712e-06
7.86599e-06
7.83609e-06
7.80733e-06
7.77963e-06
7.75294e-06
7.72719e-06
7.70233e-06
7.67833e-06
7.65516e-06
7.63279e-06
7.61124e-06
7.59051e-06
7.57066e-06
7.55175e-06
7.53388e-06
7.51718e-06
7.50179e-06
7.48789e-06
7.47565e-06
7.46523e-06
7.45679e-06
7.45041e-06
7.44612e-06
7.44388e-06
7.44355e-06
7.44491e-06
7.44769e-06
7.45153e-06
7.4561e-06
7.46107e-06
7.46615e-06
7.47118e-06
7.47614e-06
7.48123e-06
7.48693e-06
7.49426e-06
7.50521e-06
7.52407e-06
7.56082e-06
7.63666e-06
7.8005e-06
8.15911e-06
8.8342e-06
9.59279e-06
9.78203e-06
9.75183e-06
9.67293e-06
9.50901e-06
9.37242e-06
9.28744e-06
9.21979e-06
9.17319e-06
9.13769e-06
9.10499e-06
9.07644e-06
9.05109e-06
7.99873e-06
7.96338e-06
7.92954e-06
7.89712e-06
7.86599e-06
7.83609e-06
7.80733e-06
7.77963e-06
7.75294e-06
7.72719e-06
7.70233e-06
7.67833e-06
7.65516e-06
7.63279e-06
7.61124e-06
7.59051e-06
7.57066e-06
7.55175e-06
7.53388e-06
7.51718e-06
7.50179e-06
7.48789e-06
7.47565e-06
7.46523e-06
7.45679e-06
7.45041e-06
7.44613e-06
7.44388e-06
7.44355e-06
7.44492e-06
7.44769e-06
7.45154e-06
7.45612e-06
7.46109e-06
7.4662e-06
7.47128e-06
7.47633e-06
7.48157e-06
7.48754e-06
7.49537e-06
7.50728e-06
7.52815e-06
7.56932e-06
7.65484e-06
7.84067e-06
8.24468e-06
8.96046e-06
9.69426e-06
9.77025e-06
9.74045e-06
9.66231e-06
9.50188e-06
9.35884e-06
9.27974e-06
9.21881e-06
9.1731e-06
9.13895e-06
9.10742e-06
9.07949e-06
9.05481e-06
7.99873e-06
7.96338e-06
7.92954e-06
7.89712e-06
7.86599e-06
7.83609e-06
7.80733e-06
7.77963e-06
7.75294e-06
7.72719e-06
7.70233e-06
7.67833e-06
7.65516e-06
7.63279e-06
7.61124e-06
7.59051e-06
7.57066e-06
7.55175e-06
7.53388e-06
7.51718e-06
7.50179e-06
7.48789e-06
7.47565e-06
7.46523e-06
7.45679e-06
7.45041e-06
7.44613e-06
7.44388e-06
7.44355e-06
7.44492e-06
7.4477e-06
7.45155e-06
7.45613e-06
7.46112e-06
7.46626e-06
7.47138e-06
7.47652e-06
7.4819e-06
7.48815e-06
7.49646e-06
7.50933e-06
7.53229e-06
7.57786e-06
7.67313e-06
7.88122e-06
8.32972e-06
9.07474e-06
9.77292e-06
9.75946e-06
9.72764e-06
9.65043e-06
9.49362e-06
9.35004e-06
9.27326e-06
9.21806e-06
9.17363e-06
9.14038e-06
9.10985e-06
9.0825e-06
9.05846e-06
7.99873e-06
7.96338e-06
7.92954e-06
7.89712e-06
7.86599e-06
7.83609e-06
7.80733e-06
7.77963e-06
7.75294e-06
7.72719e-06
7.70233e-06
7.67833e-06
7.65516e-06
7.63279e-06
7.61124e-06
7.59051e-06
7.57066e-06
7.55175e-06
7.53388e-06
7.51718e-06
7.50179e-06
7.48789e-06
7.47565e-06
7.46523e-06
7.45679e-06
7.45041e-06
7.44613e-06
7.44389e-06
7.44356e-06
7.44492e-06
7.4477e-06
7.45156e-06
7.45615e-06
7.46115e-06
7.46631e-06
7.47148e-06
7.4767e-06
7.48223e-06
7.48873e-06
7.49751e-06
7.51132e-06
7.53634e-06
7.5863e-06
7.69124e-06
7.92104e-06
8.41164e-06
9.17613e-06
9.81327e-06
9.78238e-06
9.7098e-06
9.63021e-06
9.48372e-06
9.34438e-06
9.26829e-06
9.21741e-06
9.17455e-06
9.14183e-06
9.11225e-06
9.08539e-06
9.06193e-06
7.99873e-06
7.96338e-06
7.92954e-06
7.89712e-06
7.86599e-06
7.83609e-06
7.80733e-06
7.77963e-06
7.75294e-06
7.72719e-06
7.70233e-06
7.67833e-06
7.65516e-06
7.63279e-06
7.61124e-06
7.59051e-06
7.57066e-06
7.55175e-06
7.53388e-06
7.51718e-06
7.50179e-06
7.48789e-06
7.47565e-06
7.46523e-06
7.45679e-06
7.45041e-06
7.44613e-06
7.44389e-06
7.44356e-06
7.44492e-06
7.4477e-06
7.45156e-06
7.45616e-06
7.46117e-06
7.46636e-06
7.47157e-06
7.47686e-06
7.48253e-06
7.48927e-06
7.4985e-06
7.5132e-06
7.54018e-06
7.59432e-06
7.70858e-06
7.95937e-06
8.48781e-06
9.26463e-06
9.83266e-06
9.80212e-06
9.70714e-06
9.6077e-06
9.4715e-06
9.34052e-06
9.26476e-06
9.21689e-06
9.17564e-06
9.1433e-06
9.11453e-06
9.08814e-06
9.06515e-06
7.99873e-06
7.96338e-06
7.92954e-06
7.89712e-06
7.86599e-06
7.83609e-06
7.80733e-06
7.77963e-06
7.75294e-06
7.72719e-06
7.70233e-06
7.67833e-06
7.65516e-06
7.63279e-06
7.61124e-06
7.59051e-06
7.57066e-06
7.55175e-06
7.53388e-06
7.51718e-06
7.50179e-06
7.48789e-06
7.47565e-06
7.46523e-06
7.45679e-06
7.45041e-06
7.44613e-06
7.44389e-06
7.44356e-06
7.44493e-06
7.44771e-06
7.45157e-06
7.45617e-06
7.4612e-06
7.4664e-06
7.47165e-06
7.47701e-06
7.4828e-06
7.48977e-06
7.49941e-06
7.51493e-06
7.54371e-06
7.60172e-06
7.72471e-06
7.99491e-06
8.5561e-06
9.34009e-06
9.84304e-06
9.80749e-06
9.71536e-06
9.5886e-06
9.45964e-06
9.33759e-06
9.26242e-06
9.21649e-06
9.17674e-06
9.14471e-06
9.11656e-06
9.09061e-06
9.06803e-06
7.99873e-06
7.96338e-06
7.92954e-06
7.89712e-06
7.86599e-06
7.83609e-06
7.80733e-06
7.77963e-06
7.75294e-06
7.72719e-06
7.70233e-06
7.67833e-06
7.65516e-06
7.63279e-06
7.61124e-06
7.59051e-06
7.57066e-06
7.55175e-06
7.53388e-06
7.51718e-06
7.50179e-06
7.48789e-06
7.47565e-06
7.46523e-06
7.45679e-06
7.45041e-06
7.44613e-06
7.44389e-06
7.44356e-06
7.44493e-06
7.44771e-06
7.45158e-06
7.45618e-06
7.46122e-06
7.46644e-06
7.47173e-06
7.47715e-06
7.48304e-06
7.4902e-06
7.5002e-06
7.51645e-06
7.54685e-06
7.60832e-06
7.73909e-06
8.02652e-06
8.61487e-06
9.40239e-06
9.84724e-06
9.81136e-06
9.72112e-06
9.57388e-06
9.44935e-06
9.33521e-06
9.26094e-06
9.21624e-06
9.17777e-06
9.14597e-06
9.11831e-06
9.09275e-06
9.07052e-06
7.99873e-06
7.96338e-06
7.92954e-06
7.89712e-06
7.86599e-06
7.83609e-06
7.80733e-06
7.77963e-06
7.75294e-06
7.72719e-06
7.70233e-06
7.67833e-06
7.65516e-06
7.63279e-06
7.61124e-06
7.59051e-06
7.57066e-06
7.55175e-06
7.53388e-06
7.51718e-06
7.50179e-06
7.48789e-06
7.47565e-06
7.46523e-06
7.45679e-06
7.45041e-06
7.44613e-06
7.44389e-06
7.44356e-06
7.44493e-06
7.44771e-06
7.45158e-06
7.45619e-06
7.46124e-06
7.46647e-06
7.47179e-06
7.47726e-06
7.48325e-06
7.49056e-06
7.50086e-06
7.51773e-06
7.54949e-06
7.61388e-06
7.75127e-06
8.05317e-06
8.66295e-06
9.45158e-06
9.84846e-06
9.81338e-06
9.7248e-06
9.5632e-06
9.44111e-06
9.3333e-06
9.26006e-06
9.21612e-06
9.17867e-06
9.14707e-06
9.11978e-06
9.09452e-06
9.07258e-06
7.99873e-06
7.96338e-06
7.92954e-06
7.89712e-06
7.86599e-06
7.83609e-06
7.80733e-06
7.77963e-06
7.75294e-06
7.72719e-06
7.70233e-06
7.67833e-06
7.65516e-06
7.63279e-06
7.61124e-06
7.59051e-06
7.57066e-06
7.55175e-06
7.53388e-06
7.51718e-06
7.50179e-06
7.48789e-06
7.47565e-06
7.46523e-06
7.45679e-06
7.45041e-06
7.44613e-06
7.44389e-06
7.44356e-06
7.44493e-06
7.44772e-06
7.45158e-06
7.4562e-06
7.46125e-06
7.4665e-06
7.47184e-06
7.47735e-06
7.4834e-06
7.49084e-06
7.50137e-06
7.51873e-06
7.55155e-06
7.61824e-06
7.76081e-06
8.07398e-06
8.69956e-06
9.48799e-06
9.84846e-06
9.81398e-06
9.72713e-06
9.55583e-06
9.43499e-06
9.33183e-06
9.25956e-06
9.21606e-06
9.17937e-06
9.14794e-06
9.12091e-06
9.0959e-06
9.07418e-06
7.99873e-06
7.96338e-06
7.92954e-06
7.89712e-06
7.86599e-06
7.83609e-06
7.80733e-06
7.77963e-06
7.75294e-06
7.72719e-06
7.70233e-06
7.67833e-06
7.65516e-06
7.63279e-06
7.61124e-06
7.59051e-06
7.57066e-06
7.55175e-06
7.53388e-06
7.51718e-06
7.50179e-06
7.48789e-06
7.47565e-06
7.46523e-06
7.45679e-06
7.45041e-06
7.44613e-06
7.44389e-06
7.44356e-06
7.44493e-06
7.44772e-06
7.45159e-06
7.45621e-06
7.46126e-06
7.46652e-06
7.47187e-06
7.4774e-06
7.48351e-06
7.49103e-06
7.50172e-06
7.51941e-06
7.55296e-06
7.62123e-06
7.76738e-06
8.08829e-06
8.72426e-06
9.51207e-06
9.8481e-06
9.814e-06
9.72843e-06
9.55127e-06
9.43091e-06
9.33074e-06
9.25927e-06
9.21602e-06
9.17982e-06
9.14852e-06
9.12165e-06
9.0968e-06
9.07522e-06
7.99873e-06
7.96338e-06
7.92954e-06
7.89712e-06
7.86599e-06
7.83609e-06
7.80733e-06
7.77963e-06
7.75294e-06
7.72719e-06
7.70233e-06
7.67833e-06
7.65516e-06
7.63279e-06
7.61124e-06
7.59051e-06
7.57066e-06
7.55175e-06
7.53388e-06
7.51718e-06
7.50179e-06
7.48789e-06
7.47565e-06
7.46523e-06
7.45679e-06
7.45041e-06
7.44613e-06
7.44389e-06
7.44356e-06
7.44493e-06
7.44772e-06
7.45159e-06
7.45621e-06
7.46126e-06
7.46653e-06
7.47188e-06
7.47743e-06
7.48356e-06
7.49112e-06
7.5019e-06
7.51976e-06
7.55367e-06
7.62273e-06
7.77066e-06
8.09539e-06
8.73626e-06
9.5234e-06
9.84797e-06
9.81402e-06
9.72893e-06
9.54937e-06
9.4291e-06
9.33021e-06
9.25912e-06
9.21601e-06
9.18003e-06
9.1488e-06
9.122e-06
9.09722e-06
9.07569e-06
7.99873e-06
7.96338e-06
7.92954e-06
7.89712e-06
7.86599e-06
7.83609e-06
7.80733e-06
7.77963e-06
7.75294e-06
7.72719e-06
7.70233e-06
7.67833e-06
7.65516e-06
7.63279e-06
7.61124e-06
7.59051e-06
7.57066e-06
7.55175e-06
7.53388e-06
7.51718e-06
7.50179e-06
7.48789e-06
7.47565e-06
7.46523e-06
7.45679e-06
7.45041e-06
7.44613e-06
7.44389e-06
7.44356e-06
7.44493e-06
7.44772e-06
7.45159e-06
7.45621e-06
7.46126e-06
7.46652e-06
7.47188e-06
7.47743e-06
7.48356e-06
7.49112e-06
7.5019e-06
7.51976e-06
7.55367e-06
7.62273e-06
7.77066e-06
8.09538e-06
8.73626e-06
9.52341e-06
9.84799e-06
9.81403e-06
9.72895e-06
9.54938e-06
9.4291e-06
9.33021e-06
9.25912e-06
9.216e-06
9.18002e-06
9.1488e-06
9.122e-06
9.09722e-06
9.07569e-06
7.99873e-06
7.96338e-06
7.92954e-06
7.89712e-06
7.86599e-06
7.83609e-06
7.80733e-06
7.77963e-06
7.75294e-06
7.72719e-06
7.70233e-06
7.67833e-06
7.65516e-06
7.63279e-06
7.61124e-06
7.59051e-06
7.57066e-06
7.55175e-06
7.53388e-06
7.51718e-06
7.50179e-06
7.48789e-06
7.47565e-06
7.46523e-06
7.45679e-06
7.45041e-06
7.44613e-06
7.44389e-06
7.44356e-06
7.44493e-06
7.44772e-06
7.45159e-06
7.45621e-06
7.46126e-06
7.46652e-06
7.47187e-06
7.4774e-06
7.48351e-06
7.49103e-06
7.50172e-06
7.51941e-06
7.55296e-06
7.62123e-06
7.76738e-06
8.08827e-06
8.72425e-06
9.51209e-06
9.84816e-06
9.81406e-06
9.72846e-06
9.5513e-06
9.43091e-06
9.33073e-06
9.25925e-06
9.21601e-06
9.17981e-06
9.14852e-06
9.12165e-06
9.0968e-06
9.07521e-06
7.99873e-06
7.96338e-06
7.92954e-06
7.89712e-06
7.86599e-06
7.83609e-06
7.80733e-06
7.77963e-06
7.75294e-06
7.72719e-06
7.70233e-06
7.67833e-06
7.65516e-06
7.63279e-06
7.61124e-06
7.59051e-06
7.57066e-06
7.55175e-06
7.53388e-06
7.51718e-06
7.50179e-06
7.48789e-06
7.47565e-06
7.46523e-06
7.45679e-06
7.45041e-06
7.44613e-06
7.44389e-06
7.44356e-06
7.44493e-06
7.44772e-06
7.45158e-06
7.4562e-06
7.46125e-06
7.4665e-06
7.47184e-06
7.47735e-06
7.4834e-06
7.49084e-06
7.50137e-06
7.51873e-06
7.55154e-06
7.61823e-06
7.7608e-06
8.07396e-06
8.69953e-06
9.48802e-06
9.84855e-06
9.81407e-06
9.72719e-06
9.55587e-06
9.435e-06
9.33182e-06
9.25954e-06
9.21604e-06
9.17935e-06
9.14793e-06
9.1209e-06
9.09589e-06
9.07418e-06
7.99873e-06
7.96338e-06
7.92954e-06
7.89712e-06
7.86599e-06
7.83609e-06
7.80733e-06
7.77963e-06
7.75294e-06
7.72719e-06
7.70233e-06
7.67833e-06
7.65516e-06
7.63279e-06
7.61124e-06
7.59051e-06
7.57066e-06
7.55175e-06
7.53388e-06
7.51718e-06
7.50179e-06
7.48789e-06
7.47565e-06
7.46523e-06
7.45679e-06
7.45041e-06
7.44613e-06
7.44389e-06
7.44356e-06
7.44493e-06
7.44771e-06
7.45158e-06
7.45619e-06
7.46124e-06
7.46647e-06
7.47179e-06
7.47726e-06
7.48325e-06
7.49056e-06
7.50086e-06
7.51773e-06
7.54948e-06
7.61388e-06
7.75126e-06
8.05314e-06
8.66292e-06
9.45161e-06
9.84859e-06
9.8135e-06
9.72489e-06
9.56325e-06
9.44113e-06
9.33328e-06
9.26004e-06
9.21609e-06
9.17864e-06
9.14705e-06
9.11977e-06
9.09452e-06
9.07258e-06
7.99873e-06
7.96338e-06
7.92954e-06
7.89712e-06
7.86599e-06
7.83609e-06
7.80733e-06
7.77963e-06
7.75294e-06
7.72719e-06
7.70233e-06
7.67833e-06
7.65516e-06
7.63279e-06
7.61124e-06
7.59051e-06
7.57066e-06
7.55175e-06
7.53388e-06
7.51718e-06
7.50179e-06
7.48789e-06
7.47565e-06
7.46523e-06
7.45679e-06
7.45041e-06
7.44613e-06
7.44389e-06
7.44356e-06
7.44493e-06
7.44771e-06
7.45158e-06
7.45618e-06
7.46122e-06
7.46644e-06
7.47173e-06
7.47715e-06
7.48304e-06
7.4902e-06
7.5002e-06
7.51645e-06
7.54684e-06
7.60831e-06
7.73908e-06
8.02649e-06
8.61483e-06
9.40241e-06
9.84738e-06
9.81149e-06
9.72122e-06
9.57395e-06
9.44937e-06
9.3352e-06
9.26092e-06
9.21621e-06
9.17774e-06
9.14595e-06
9.1183e-06
9.09275e-06
9.07053e-06
7.99873e-06
7.96338e-06
7.92954e-06
7.89712e-06
7.86599e-06
7.83609e-06
7.80733e-06
7.77963e-06
7.75294e-06
7.72719e-06
7.70233e-06
7.67833e-06
7.65516e-06
7.63279e-06
7.61124e-06
7.59051e-06
7.57066e-06
7.55175e-06
7.53388e-06
7.51718e-06
7.50179e-06
7.48789e-06
7.47565e-06
7.46523e-06
7.45679e-06
7.45041e-06
7.44613e-06
7.44389e-06
7.44356e-06
7.44493e-06
7.44771e-06
7.45157e-06
7.45617e-06
7.4612e-06
7.4664e-06
7.47165e-06
7.47701e-06
7.4828e-06
7.48977e-06
7.4994e-06
7.51492e-06
7.54371e-06
7.60172e-06
7.72469e-06
7.99487e-06
8.55606e-06
9.3401e-06
9.84318e-06
9.80762e-06
9.71546e-06
9.58869e-06
9.45967e-06
9.33757e-06
9.2624e-06
9.21647e-06
9.17671e-06
9.14469e-06
9.11655e-06
9.09061e-06
9.06805e-06