/*--------------------------------*- C++ -*----------------------------------*\
  =========                 |
  \\      /  F ield         | OpenFOAM: The Open Source CFD Toolbox
   \\    /   O peration     | Website:  https://openfoam.org
    \\  /    A nd           | Version:  9
     \\/     M anipulation  |
\*---------------------------------------------------------------------------*/
FoamFile
{
    format      ascii;
    class       volScalarField;
    location    "0.005";
    object      epsilon;
}
// * * * * * * * * * * * * * * * * * * * * * * * * * * * * * * * * * * * * * //

dimensions      [0 2 -3 0 0 0 0];

internalField   nonuniform List<scalar> 
36400
(
250676
234070
219000
205287
192776
181336
170850
161218
152354
144182
136637
129661
123206
117229
111694
106569
101825
97439.7
93389.6
89654.6
86216
83055.8
80157.4
77504.7
75083.1
72879.4
70881.4
69079
67463.1
66026.1
64760.7
63659.9
62715.7
61918.8
61257.6
60718.5
60285.6
59941.2
59666.8
59444.2
59256.3
59088.9
58931.5
58777.8
58627
58483.6
58357.3
58263.6
58224.1
58271.4
58464.2
58937.4
60025.3
62645.4
68697.4
78741.7
87523
90736.3
93517.1
96456.3
250676
234070
219000
205287
192776
181336
170849
161217
152352
144179
136632
129653
123194
117210
111667
106530
101771
97366.9
93294.1
89532.4
86063.3
82869.1
79933.6
77241.5
74778.9
72533
70492.6
68647.7
66989.9
65511.5
64205.4
63064.4
62080.5
61244.4
60544.8
59968.3
59499.7
59122
58817.7
58569.1
58360.1
58177
58009.2
57850.5
57699.4
57559.4
57439.4
57353.9
57325.1
57389.7
57624.6
58205.9
59584.5
62840.3
68933.7
75261.9
77452.9
77899
78519.3
79360
250676
234070
219000
205286
192776
181335
170849
161216
152350
144175
136624
129640
123174
117180
111621
106465
101682
97246.3
93135.7
89329.6
85809.5
82558.4
79560.9
76802.7
74271
71954.2
69842.2
67925.9
66197.3
64649.4
63275
62066.9
61017.2
60116.5
59354
58716.8
58190.5
57759.5
57407.4
57118
56876.4
56669.3
56486.7
56321.8
56172.1
56039.6
55931.5
55861.1
55851.5
55948
56255.7
57030.3
58930.9
63114.1
68885.4
72303
73004.2
73329.2
73609.8
73575.9
250676
234070
219000
205286
192776
181335
170848
161214
152347
144170
136616
129627
123152
117146
111572
106394
101583
97113.4
92960.9
89105.4
85528.6
82213.9
79146.9
76314.3
73704.8
71307.9
69114.8
67117.6
65309.2
63682.7
62231.5
60948.6
59826
58854.6
58023.7
57321.4
56734
56247.1
55845.8
55515.1
55241.1
55011.6
54816.4
54648.4
54504.2
54384.2
54294.2
54247.1
54269.4
54423.2
54862.9
55986.1
58709.1
63741.7
68460
69317.7
69458.6
69759.2
70211
70391.6
250676
234070
219000
205286
192776
181335
170847
161213
152345
144166
136608
129615
123133
117117
111529
106332
101498
96997.4
92808.1
88908.9
85281.7
81910.5
78781.3
75882.1
73202.4
70733.3
68466.9
66396.4
64515.4
62818
61297.9
59948.2
58761.2
57728
56838.4
56080.8
55442.4
54909.7
54468.8
54105.8
53807.6
53562.4
53360.4
53194.1
53059.4
52955.7
52888.5
52872
52942.1
53190.5
53851.9
55541.3
59305.5
64420.6
66917.7
66915.3
66903.3
67033.2
67427.7
67802.4
250676
234070
219000
205286
192776
181334
170847
161212
152343
144162
136603
129606
123119
117096
111497
106287
101435
96912.1
92695.4
88763.7
85098.8
81685
78508.8
75559
72825.8
70301.3
67978.6
65851.7
63915
62163.1
60590.2
59189.9
57954.6
56875.6
55943.1
55145.9
54471.7
53907.5
53440.1
53056.3
52743.4
52490.2
52286.7
52125.5
52002.3
51916.5
51874.4
51895.4
52032.4
52425.4
53445
55961
60653.3
64982.7
65371.4
65276
65202.7
65237.8
65446.8
65734.6
250676
234070
219000
205286
192776
181334
170846
161212
152342
144161
136600
129600
123110
117083
111477
106259
101395
96857.6
92623.2
88670.3
84980.8
81539.1
78332
75348.6
72579.8
70018.2
67657.6
65492.7
63518.4
61729.8
60121.6
58687.5
57420.3
56311.6
55351.6
54529.5
53833.2
53250.2
52767.5
52372.3
52052.2
51796.1
51594.4
51439.8
51328.1
51259.9
51244.5
51311
51541.6
52151.5
53717.4
57275.3
62248.6
64761.7
64494.4
64291.4
64110.7
64052.7
64163.8
64326
250676
234070
218999
205286
192776
181334
170846
161211
152341
144159
136598
129597
123105
117075
111466
106243
101372
96826.7
92582.1
88617.1
84913.3
81455.2
78229.9
75226.7
72436.8
69853.1
67469.9
65282.1
63285.1
61474.5
59845
58390.7
57104.6
55978.5
55002.8
54166.6
53458.2
52865.1
52374.5
51973.8
51650.9
51394.8
51196.2
51048.2
50947.4
50896.5
50910.3
51034.7
51395.6
52330.4
54667.7
59221.8
63696.1
64225.9
64064.5
63801.1
63458.2
63231
63299.2
63423.1
250676
234070
218999
205286
192776
181334
170846
161211
152341
144159
136597
129596
123103
117071
111461
106234
101360
96810.9
92561.1
88589.7
84878.4
81411.8
78176.9
75163.1
72361.8
69766.2
67370.7
65170.4
63161.2
61338.4
59697.3
58232.1
56935.9
55800.5
54816.4
53972.9
53258.4
52660.4
52166.2
51763.4
51439.9
51185
50989.8
50848.1
50757.9
50725.1
50774
50976.4
51522.9
52934.8
56252.5
61312.6
64410.6
64108.4
63868.8
63538.2
63039.1
62760.1
62780.5
62809.5
250676
234070
218999
205286
192776
181334
170846
161211
152341
144159
136597
129595
123102
117070
111458
106231
101355
96803.6
92551.3
88576.9
84862
81391.3
78151.7
75132.7
72325.9
69724.5
67322.8
65116.4
63100.9
61272.2
59625.2
58154.6
56853.3
55713.3
54725.1
53878.2
53160.8
52560.6
52065
51661.6
51338.5
51085.4
50893.8
50758.4
50679.3
50667.6
50761.8
51070.4
51884.8
53963.2
58303.4
63110.9
64315.2
64141.1
63831.1
63335
62804.8
62514.4
62425.7
62442
250676
234070
218999
205286
192776
181334
170846
161211
152341
144159
136596
129595
123101
117069
111457
106229
101353
96800.4
92547.1
88571.3
84854.9
81382.3
78140.7
75119.4
72310.1
69705.9
67301.5
65092.2
63073.9
61242.4
59592.8
58119.5
56815.9
55673.8
54683.8
53835.3
53116.7
52515.7
52019.7
51616.4
51294.3
51043.3
50855.5
50727
50660.8
50675.6
50831.2
51287
52485.2
55421.4
60492.7
64446.7
64302.3
64102.2
63739.5
63210.7
62709.4
62384.1
62252.1
62225.6
250676
234070
218999
205286
192776
181334
170846
161211
152341
144159
136596
129595
123101
117069
111456
106228
101352
96799.2
92545.4
88569.1
84852
81378.7
78136.2
75114
72303.6
69698.3
67292.7
65082.2
63062.7
61229.9
59579.1
58104.8
56800.2
55657.2
54666.4
53817.3
53098.3
52497
52001.1
51598.4
51277.5
51028.9
50845.5
50725
50674.6
50724.1
50961.7
51623.4
53353.6
57269.4
62469.2
64763.8
64530.8
64192.7
63629.8
63063.7
62651.4
62338.5
62169.7
62107.3
250676
234070
218999
205286
192776
181334
170846
161211
152341
144158
136596
129595
123101
117068
111456
106228
101352
96798.7
92544.7
88568.3
84851
81377.3
78134.5
75111.9
72301.1
69695.4
67289.3
65078.3
63058.3
61225
59573.8
58099
56794
55650.6
54659.6
53810.3
53091.1
52490
51994.4
51592.5
51273.1
51027.3
50849
50738.2
50707.7
50803.6
51151.3
52098.5
54521.4
59322
64026
64724.7
64540.7
64182.3
63613.3
62987.2
62600.2
62325.4
62138.2
62038.9
250676
234070
218999
205286
192776
181334
170846
161211
152341
144158
136596
129595
123101
117068
111456
106228
101352
96798.6
92544.5
88568
84850.6
81376.8
78133.9
75111.1
72300.2
69694.3
67288
65076.9
63056.7
61223.2
59571.8
58096.9
56791.7
55648.2
54657.1
53807.8
53088.7
52487.7
51992.7
51591.7
51274.2
51031.7
50859.5
50760.5
50755.6
50911.8
51407.4
52743.2
56001.1
61331.3
65073.5
64757.6
64534.1
64124.3
63542.9
62980.2
62578.1
62320.2
62134.6
62008.1
250676
234070
218999
205286
192776
181334
170846
161211
152341
144158
136596
129595
123101
117068
111456
106228
101351
96798.5
92544.5
88567.9
84850.4
81376.7
78133.7
75110.9
72299.9
69693.9
67287.6
65076.4
63056.1
61222.6
59571.1
58096.1
56790.9
55647.4
54656.3
53807
53088.1
52487.5
51993.1
51593.3
51277.9
51039.3
50874.2
50789.7
50817.7
51051.4
51744.1
53588.5
57740.6
63073
65261.1
65010.6
64645.1
63980.9
63422.2
62969.5
62589.8
62326.3
62144.8
62005.2
250676
234070
218999
205286
192776
181334
170846
161211
152341
144158
136596
129595
123101
117068
111456
106228
101351
96798.5
92544.4
88567.8
84850.4
81376.6
78133.6
75110.8
72299.8
69693.8
67287.5
65076.2
63055.9
61222.4
59570.9
58095.9
56790.7
55647.2
54656.1
53806.9
53088.2
52488
51994.4
51596
51283
51048.8
50892.2
50825.7
50895.8
51229.1
52180.7
54653.3
59586.1
64427.8
65220.8
65024.4
64629.7
63988.5
63344.6
62940.8
62612.4
62348.4
62163.7
62017.4
250676
234070
218999
205286
192776
181334
170846
161211
152341
144158
136596
129595
123101
117068
111456
106228
101351
96798.5
92544.4
88567.8
84850.4
81376.6
78133.6
75110.8
72299.8
69693.8
67287.4
65076.2
63055.9
61222.3
59570.8
58095.8
56790.6
55647.2
54656.2
53807.1
53088.7
52488.9
51996.1
51599.3
51289.2
51060.1
50913.6
50869.2
50991
51451.1
52736.9
55937.8
61365.3
65391.2
65183.3
64961.2
64556
63975.4
63334
62919.9
62630.4
62380.6
62189.7
62041.5
250676
234070
218999
205286
192776
181334
170846
161211
152341
144158
136596
129595
123101
117068
111456
106228
101351
96798.5
92544.4
88567.8
84850.4
81376.6
78133.6
75110.8
72299.7
69693.8
67287.4
65076.2
63055.9
61222.3
59570.8
58095.9
56790.6
55647.2
54656.3
53807.4
53089.2
52490
51998.2
51603.1
51296.2
51072.9
50938.4
50921.1
51105.9
51725.5
53427.7
57404.5
62933.9
65714.8
65420.3
64966.1
64420.1
63869
63339
62922.9
62645.2
62414.9
62223.1
62076.7
250676
234070
218999
205286
192776
181334
170846
161211
152341
144158
136596
129595
123101
117068
111456
106228
101351
96798.5
92544.4
88567.8
84850.4
81376.6
78133.6
75110.8
72299.7
69693.8
67287.4
65076.2
63055.9
61222.3
59570.8
58095.9
56790.7
55647.3
54656.5
53807.8
53089.9
52491.3
52000.6
51607.5
51304
51087.5
50967
50982.4
51243.9
52061.4
54259.3
58958
64219
65716.2
65481.4
65057.3
64323.4
63754.7
63324.8
62941.8
62663.4
62447.3
62261.1
62113.8
250676
234070
218999
205286
192776
181334
170846
161211
152341
144158
136596
129595
123101
117068
111456
106228
101351
96798.5
92544.4
88567.8
84850.4
81376.6
78133.6
75110.8
72299.7
69693.8
67287.4
65076.2
63055.9
61222.3
59570.9
58095.9
56790.8
55647.4
54656.7
53808.2
53090.7
52492.8
52003.3
51612.2
51312.6
51103.7
50999.7
51053.1
51406.6
52465.9
55227.6
60484.9
65193.1
65656.3
65444.9
65016.4
64337.1
63687.9
63295.9
62961.8
62687
62477.2
62298.1
62151.4
250676
234070
218999
205286
192776
181334
170846
161211
152341
144158
136596
129595
123101
117068
111456
106228
101351
96798.5
92544.4
88567.8
84850.4
81376.6
78133.6
75110.8
72299.8
69693.8
67287.4
65076.2
63055.9
61222.3
59570.9
58095.9
56790.8
55647.6
54656.9
53808.6
53091.6
52494.4
52006.1
51617.4
51322
51121.6
51036.5
51134
51596.5
52943.1
56310.9
61893.8
65872.9
65599.7
65368.1
64948.6
64326
63668.5
63270.7
62975.7
62713.6
62505.9
62335.7
62190.9
250676
234070
218999
205286
192776
181334
170846
161211
152341
144158
136596
129595
123101
117068
111456
106228
101351
96798.5
92544.4
88567.8
84850.4
81376.6
78133.6
75110.8
72299.8
69693.8
67287.4
65076.2
63055.9
61222.4
59570.9
58096
56790.9
55647.7
54657.2
53809.1
53092.5
52496
52009.2
51622.9
51332.2
51141.2
51077.9
51225.4
51814.1
53491.3
57473.2
63123.8
66136.3
65786.1
65294.7
64824.8
64254.6
63667.7
63259.3
62984.3
62739.5
62534
62368
62225.8
250676
234070
218999
205286
192776
181334
170846
161211
152341
144158
136596
129595
123101
117068
111456
106228
101351
96798.5
92544.4
88567.8
84850.4
81376.6
78133.6
75110.8
72299.8
69693.8
67287.4
65076.2
63055.9
61222.4
59570.9
58096
56791
55647.9
54657.5
53809.7
53093.5
52497.8
52012.4
51628.7
51342.9
51162.4
51123.1
51326.9
52060.5
54104.7
58656.2
64156.3
66162.9
65861
65403
64683.6
64160.7
63662.4
63260.6
62991.5
62762.9
62560.3
62396.8
62257.2
250676
234070
218999
205286
192776
181334
170846
161211
152341
144158
136596
129595
123101
117068
111456
106228
101351
96798.5
92544.4
88567.8
84850.4
81376.6
78133.6
75110.8
72299.8
69693.8
67287.4
65076.2
63055.9
61222.4
59571
58096.1
56791.1
55648
54657.8
53810.2
53094.5
52499.7
52015.7
51634.7
51354.2
51185
51171.7
51437.6
52333.8
54771.5
59800.5
64990.9
66126.1
65878.8
65429.1
64623.5
64073.7
63647.1
63269.2
63000.2
62783.5
62586
62423.7
62288
250676
234070
218999
205286
192776
181334
170846
161211
152341
144158
136596
129595
123101
117068
111456
106228
101351
96798.5
92544.4
88567.8
84850.4
81376.6
78133.6
75110.8
72299.8
69693.8
67287.4
65076.2
63055.9
61222.4
59571
58096.1
56791.1
55648.2
54658.1
53810.8
53095.5
52501.6
52019.1
51640.9
51365.8
51208.7
51223.2
51556.5
52630.3
55473
60859.6
65631.7
66080.5
65845.7
65383.8
64641.3
64015.1
63625.7
63279.8
63011.4
62802.1
62610.5
62449.6
62316.9
250676
234070
218999
205286
192776
181334
170846
161211
152341
144158
136596
129595
123101
117068
111456
106228
101351
96798.5
92544.4
88567.8
84850.4
81376.6
78133.6
75110.8
72299.8
69693.8
67287.4
65076.2
63055.9
61222.4
59571
58096.2
56791.2
55648.3
54658.4
53811.4
53096.6
52503.5
52022.5
51647.1
51377.6
51233
51276.4
51681.3
52943.9
56188.6
61806.5
66105.3
66034
65798.6
65344.3
64639.2
63985.3
63605.6
63290.1
63025.2
62819.7
62633.1
62474.4
62344.4
250676
234070
218999
205286
192776
181334
170846
161211
152341
144158
136596
129595
123101
117068
111456
106228
101351
96798.5
92544.4
88567.8
84850.4
81376.6
78133.6
75110.8
72299.8
69693.8
67287.4
65076.2
63055.9
61222.4
59571
58096.2
56791.3
55648.5
54658.7
53811.9
53097.6
52505.3
52025.8
51653.2
51389.4
51257.7
51330.5
51809.2
53266.7
56897
62632
66434.1
66007.1
65747.1
65302.3
64626.1
63974.2
63591.1
63299.3
63040.8
62837.1
62654.8
62498
62370.5
250676
234070
218999
205286
192776
181334
170846
161211
152341
144158
136596
129595
123101
117068
111456
106228
101351
96798.5
92544.4
88567.8
84850.4
81376.6
78133.6
75110.8
72299.8
69693.8
67287.5
65076.2
63055.9
61222.4
59571.1
58096.3
56791.4
55648.7
54659
53812.5
53098.6
52507.1
52029.1
51659.1
51400.9
51282.1
51384.5
51937.8
53589.2
57575.3
63332.8
66570.6
66137.3
65677.4
65223.3
64601.4
63973.1
63583.4
63307.5
63056.9
62853.8
62675.4
62520.3
62394.9
250676
234070
218999
205286
192776
181334
170846
161211
152341
144158
136596
129595
123101
117068
111456
106228
101351
96798.5
92544.4
88567.8
84850.4
81376.6
78133.6
75110.8
72299.8
69693.8
67287.5
65076.2
63055.9
61222.5
59571.1
58096.3
56791.5
55648.8
54659.3
53813
53099.5
52508.8
52032.1
51664.6
51411.9
51305.3
51436.4
52063
53902.7
58201.4
63915.6
66617.4
66238.1
65682.9
65137.1
64562.2
63975.1
63581.3
63314.9
63072.3
62869.8
62694.5
62541
62417.4
250676
234070
218999
205286
192776
181334
170846
161211
152341
144158
136596
129595
123101
117068
111456
106228
101351
96798.5
92544.4
88567.8
84850.4
81376.6
78133.6
75110.8
72299.8
69693.8
67287.5
65076.2
63056
61222.5
59571.1
58096.3
56791.6
55648.9
54659.5
53813.4
53100.4
52510.3
52034.8
51669.7
51422
51326.8
51484.7
52180.9
54195.9
58757.8
64390.7
66631.1
66267.7
65733.7
65069.4
64522.2
63976.6
63582.8
63321.6
63086
62884.4
62711.3
62559.4
62437.4
250676
234070
218999
205286
192776
181334
170846
161211
152341
144158
136596
129595
123101
117068
111456
106228
101351
96798.5
92544.4
88567.8
84850.4
81376.6
78133.6
75110.8
72299.8
69693.8
67287.5
65076.2
63056
61222.5
59571.1
58096.4
56791.6
55649.1
54659.8
53813.9
53101.1
52511.6
52037.2
51674.2
51430.9
51346
51528.1
52287.4
54458.2
59232.4
64767.6
66625.4
66289.3
65767.7
65021.5
64487.3
63976.9
63586.2
63327.6
63097.8
62896.9
62725.6
62575.2
62454.6
250676
234070
218999
205286
192776
181334
170846
161211
152341
144158
136596
129595
123101
117068
111456
106228
101351
96798.5
92544.4
88567.8
84850.4
81376.6
78133.6
75110.8
72299.8
69693.8
67287.5
65076.2
63056
61222.5
59571.1
58096.4
56791.7
55649.2
54659.9
53814.2
53101.7
52512.7
52039.2
51677.9
51438.5
51362.2
51565
52378.4
54680.3
59617.3
65055.2
66614.2
66301
65789.1
64989.7
64459.7
63976.4
63590.3
63332.7
63107.6
62907.4
62737.3
62588.2
62468.8
250676
234070
218999
205286
192776
181334
170846
161211
152341
144158
136596
129595
123101
117068
111456
106228
101351
96798.5
92544.4
88567.8
84850.4
81376.6
78133.6
75110.8
72299.8
69693.8
67287.5
65076.2
63056
61222.5
59571.2
58096.4
56791.7
55649.2
54660.1
53814.5
53102.2
52513.6
52040.7
51680.9
51444.4
51374.9
51594
52450.2
54854.3
59908.5
65263
66604.3
66306.1
65802.9
64969.8
64439.8
63975.8
63594.2
63337
63115
62915.6
62746.4
62598.2
62479.9
250676
234070
218999
205286
192776
181334
170846
161211
152341
144158
136596
129595
123101
117068
111456
106228
101351
96798.5
92544.4
88567.8
84850.4
81376.6
78133.6
75110.8
72299.8
69693.8
67287.5
65076.2
63056
61222.5
59571.2
58096.4
56791.8
55649.3
54660.2
53814.6
53102.5
52514.2
52041.8
51682.8
51448.4
51383.6
51614
52499.9
54973.9
60103.4
65396.8
66596.5
66307
65809.9
64957.7
64426.2
63974.3
63596.7
63339.6
63119.7
62920.8
62752.2
62604.6
62486.9
250676
234070
218999
205286
192776
181334
170846
161211
152341
144158
136596
129595
123101
117068
111456
106228
101351
96798.5
92544.4
88567.8
84850.4
81376.6
78133.6
75110.8
72299.8
69693.8
67287.5
65076.2
63056
61222.5
59571.2
58096.5
56791.8
55649.3
54660.2
53814.7
53102.7
52514.5
52042.3
51683.9
51450.4
51388
51624.1
52524.8
55033.4
60197.7
65459.4
66593
66307.2
65812.5
64952.9
64420.2
63973.4
63597.6
63340.7
63121.8
62923.2
62754.8
62607.5
62490
250676
234070
218999
205286
192776
181334
170846
161211
152341
144158
136596
129595
123101
117068
111456
106228
101351
96798.5
92544.4
88567.8
84850.4
81376.6
78133.6
75110.8
72299.8
69693.8
67287.5
65076.2
63056
61222.5
59571.2
58096.5
56791.8
55649.3
54660.2
53814.7
53102.7
52514.5
52042.3
51683.9
51450.4
51388
51624.1
52524.8
55033.3
60197.7
65459.5
66593.2
66307.4
65812.7
64953
64420.3
63973.5
63597.6
63340.8
63121.8
62923.3
62754.9
62607.6
62490
250676
234070
218999
205286
192776
181334
170846
161211
152341
144158
136596
129595
123101
117068
111456
106228
101351
96798.5
92544.4
88567.8
84850.4
81376.6
78133.6
75110.8
72299.8
69693.8
67287.5
65076.2
63056
61222.5
59571.2
58096.4
56791.8
55649.3
54660.2
53814.6
53102.5
52514.2
52041.8
51682.8
51448.4
51383.6
51614
52499.8
54973.8
60103.3
65397
66597
66307.5
65810.3
64958
64426.5
63974.6
63596.9
63339.8
63119.9
62921
62752.2
62604.6
62486.9
250676
234070
218999
205286
192776
181334
170846
161211
152341
144158
136596
129595
123101
117068
111456
106228
101351
96798.5
92544.4
88567.8
84850.4
81376.6
78133.6
75110.8
72299.8
69693.8
67287.5
65076.2
63056
61222.5
59571.2
58096.4
56791.7
55649.2
54660.1
53814.5
53102.2
52513.6
52040.7
51680.8
51444.4
51374.8
51594
52450.1
54854.1
59908.4
65263.4
66605.2
66306.8
65803.5
64970.3
64440.2
63976.2
63594.5
63337.3
63115.3
62915.8
62746.5
62598.3
62480
250676
234070
218999
205286
192776
181334
170846
161211
152341
144158
136596
129595
123101
117068
111456
106228
101351
96798.5
92544.4
88567.8
84850.4
81376.6
78133.6
75110.8
72299.8
69693.8
67287.5
65076.2
63056
61222.5
59571.1
58096.4
56791.7
55649.2
54659.9
53814.2
53101.7
52512.7
52039.2
51677.9
51438.5
51362.1
51565
52378.3
54680.1
59617.1
65055.8
66615.3
66302.1
65790
64990.5
64460.3
63976.9
63590.8
63333.1
63108
62907.8
62737.7
62588.5
62469.2
250676
234070
218999
205286
192776
181334
170846
161211
152341
144158
136596
129595
123101
117068
111456
106228
101351
96798.5
92544.4
88567.8
84850.4
81376.6
78133.6
75110.8
72299.8
69693.8
67287.5
65076.2
63056
61222.5
59571.1
58096.4
56791.6
55649.1
54659.8
53813.9
53101.1
52511.6
52037.2
51674.2
51430.9
51345.9
51528.1
52287.3
54457.9
59232.2
64768.1
66626.7
66290.4
65768.7
65022.5
64488
63977.6
63586.8
63328.1
63098.4
62897.4
62726.1
62575.8
62455.3
250676
234070
218999
205286
192776
181334
170846
161211
152341
144158
136596
129595
123101
117068
111456
106228
101351
96798.5
92544.4
88567.8
84850.4
81376.6
78133.6
75110.8
72299.8
69693.8
67287.5
65076.2
63055.9
61222.5
59571.1
58096.3
56791.6
55648.9
54659.5
53813.4
53100.4
52510.3
52034.8
51669.7
51422
51326.8
51484.7
52180.8
54195.6
58757.5
64391.2
66632.4
66269
65734.8
65070.4
64523
63977.3
63583.5
63322.2
63086.6
62885
62712
62560.2
62438.3
250676
234070
218999
205286
192776
181334
170846
161211
152341
144158
136596
129595
123101
117068
111456
106228
101351
96798.5
92544.4
88567.8
84850.4
81376.6
78133.6
75110.8
72299.8
69693.8
67287.5
65076.2
63055.9
61222.5
59571.1
58096.3
56791.5
55648.8
54659.3
53813
53099.5
52508.8
52032.1
51664.6
51411.9
51305.3
51436.3
52062.9
53902.5
58201
63915.9
66618.7
66239.3
65684
65138.2
64563
63975.8
63582
63315.6
63072.9
62870.6
62695.4
62542
62418.5
250676
234070
218999
205286
192776
181334
170846
161211
152341
144158
136596
129595
123101
117068
111456
106228
101351
96798.5
92544.4
88567.8
84850.4
81376.6
78133.6
75110.8
72299.8
69693.8
67287.5
65076.2
63055.9
61222.4
59571.1
58096.3
56791.4
55648.7
54659
53812.5
53098.6
52507.1
52029.1
51659.1
51400.9
51282.1
51384.4
51937.7
53588.9
57574.9
63333
66571.8
66138.4
65678.5
65224.3
64602.1
63973.7
63584
63308.1
63057.5
62854.5
62676.3
62521.2
62396
250676
234070
218999
205286
192776
181334
170846
161211
152341
144158
136596
129595
123101
117068
111456
106228
101351
96798.5
92544.4
88567.8
84850.4
81376.6
78133.6
75110.8
72299.8
69693.8
67287.4
65076.2
63055.9
61222.4
59571
58096.2
56791.3
55648.5
54658.7
53811.9
53097.6
52505.3
52025.8
51653.2
51389.4
51257.7
51330.5
51809.1
53266.5
56896.6
62632
66434.9
66008
65748
65303.1
64626.7
63974.8
63591.6
63299.7
63041.3
62837.6
62655.4
62498.7
62371.4
250676
234070
218999
205286
192776
181334
170846
161211
152341
144158
136596
129595
123101
117068
111456
106228
101351
96798.5
92544.4
88567.8
84850.4
81376.6
78133.6
75110.8
72299.8
69693.8
67287.4
65076.2
63055.9
61222.4
59571
58096.2
56791.2
55648.3
54658.4
53811.4
53096.6
52503.5
52022.5
51647.1
51377.6
51233
51276.4
51681.2
52943.7
56188.2
61806.4
66105.9
66034.7
65799.3
65344.9
64639.6
63985.7
63605.9
63290.4
63025.5
62820
62633.5
62474.9
62344.9
250676
234070
218999
205286
192776
181334
170846
161211
152341
144158
136596
129595
123101
117068
111456
106228
101351
96798.5
92544.4
88567.8
84850.4
81376.6
78133.6
75110.8
72299.8
69693.8
67287.4
65076.2
63055.9
61222.4
59571
58096.1
56791.1
55648.2
54658.1
53810.8
53095.5
52501.6
52019.1
51640.9
51365.8
51208.7
51223.1
51556.4
52630.2
55472.8
60859.3
65631.9
66080.9
65846.1
65384.1
64641.4
64015.3
63625.8
63279.9
63011.5
62802.1
62610.5
62449.7
62317
250676
234070
218999
205286
192776
181334
170846
161211
152341
144158
136596
129595
123101
117068
111456
106228
101351
96798.5
92544.4
88567.8
84850.4
81376.6
78133.6
75110.8
72299.8
69693.8
67287.4
65076.2
63055.9
61222.4
59571
58096.1
56791.1
55648
54657.8
53810.2
53094.5
52499.7
52015.7
51634.7
51354.2
51185
51171.7
51437.6
52333.7
54771.3
59800.2
64990.8
66126.1
65878.8
65429.1
64623.3
64073.6
63646.9
63268.9
62999.9
62783.2
62585.7
62423.4
62287.6
250676
234070
218999
205286
192776
181334
170846
161211
152341
144158
136596
129595
123101
117068
111456
106228
101351
96798.5
92544.4
88567.8
84850.4
81376.6
78133.6
75110.8
72299.8
69693.8
67287.4
65076.2
63055.9
61222.4
59570.9
58096
56791
55647.9
54657.5
53809.7
53093.5
52497.8
52012.4
51628.7
51342.9
51162.4
51123.1
51326.9
52060.5
54104.5
58656
64155.9
66162.6
65860.7
65402.6
64683.1
64160.2
63661.9
63260.1
62991
62762.3
62559.6
62396.1
62256.4
250676
234070
218999
205286
192776
181334
170846
161211
152341
144158
136596
129595
123101
117068
111456
106228
101351
96798.5
92544.4
88567.8
84850.4
81376.6
78133.6
75110.8
72299.8
69693.8
67287.4
65076.2
63055.9
61222.4
59570.9
58096
56790.9
55647.7
54657.2
53809.1
53092.5
52496.1
52009.2
51622.9
51332.2
51141.2
51077.9
51225.4
51814.1
53491.3
57473
63123.3
66135.5
65785.3
65293.9
64824.1
64253.8
63666.9
63258.5
62983.5
62738.6
62533.1
62367.1
62224.8
250676
234070
218999
205286
192776
181334
170846
161211
152341
144158
136596
129595
123101
117068
111456
106228
101351
96798.5
92544.4
88567.8
84850.4
81376.6
78133.6
75110.8
72299.8
69693.8
67287.4
65076.2
63055.9
61222.3
59570.9
58095.9
56790.8
55647.6
54656.9
53808.6
53091.6
52494.4
52006.1
51617.4
51322.1
51121.6
51036.5
51134.1
51596.5
52943.1
56310.8
61893.3
65871.9
65598.6
65367
64947.5
64325
63667.4
63269.7
62974.7
62712.5
62504.8
62334.6
62189.7
250676
234070
218999
205286
192776
181334
170846
161211
152341
144158
136596
129595
123101
117068
111456
106228
101351
96798.5
92544.4
88567.8
84850.4
81376.6
78133.6
75110.8
72299.7
69693.8
67287.4
65076.2
63055.9
61222.3
59570.9
58095.9
56790.8
55647.4
54656.7
53808.2
53090.7
52492.8
52003.3
51612.2
51312.7
51103.7
50999.7
51053.2
51406.7
52466
55227.6
60484.5
65191.9
65654.9
65443.4
65015
64335.8
63686.7
63294.7
62960.7
62685.9
62476.1
62296.9
62150.1
250676
234070
218999
205286
192776
181334
170846
161211
152341
144158
136596
129595
123101
117068
111456
106228
101351
96798.5
92544.4
88567.8
84850.4
81376.6
78133.6
75110.8
72299.7
69693.8
67287.4
65076.2
63055.9
61222.3
59570.8
58095.9
56790.7
55647.3
54656.5
53807.8
53089.9
52491.3
52000.6
51607.5
51304
51087.5
50967
50982.4
51244
52061.5
54259.4
58957.7
64217.8
65714.5
65479.8
65055.7
64321.9
63753.3
63323.5
62940.5
62662.2
62446.1
62260.1
62112.7
250676
234070
218999
205286
192776
181334
170846
161211
152341
144158
136596
129595
123101
117068
111456
106228
101351
96798.5
92544.4
88567.8
84850.4
81376.6
78133.6
75110.8
72299.7
69693.8
67287.4
65076.2
63055.9
61222.3
59570.8
58095.8
56790.6
55647.2
54656.3
53807.4
53089.2
52490
51998.2
51603.1
51296.2
51072.9
50938.4
50921.1
51105.9
51725.6
53427.8
57404.4
62932.9
65712.9
65418.5
64964.4
64418.4
63867.5
63337.7
62921.6
62644.1
62413.8
62222.1
62075.7
250676
234070
218999
205286
192776
181334
170846
161211
152341
144158
136596
129595
123101
117068
111456
106228
101351
96798.5
92544.4
88567.8
84850.4
81376.6
78133.6
75110.8
72299.8
69693.8
67287.4
65076.2
63055.9
61222.3
59570.8
58095.8
56790.6
55647.2
54656.1
53807.1
53088.6
52488.9
51996.1
51599.3
51289.2
51060.1
50913.6
50869.3
50991
51451.1
52737
55937.8
61364.6
65389.3
65181.4
64959.3
64554.3
63973.9
63332.7
62918.7
62629.4
62379.7
62189
62040.9
250676
234070
218999
205286
192776
181334
170846
161211
152341
144158
136596
129595
123101
117068
111456
106228
101351
96798.5
92544.4
88567.8
84850.4
81376.6
78133.6
75110.8
72299.8
69693.8
67287.5
65076.2
63055.9
61222.4
59570.9
58095.9
56790.7
55647.2
54656.1
53806.9
53088.2
52488
51994.3
51595.9
51283
51048.8
50892.2
50825.7
50895.8
51229.1
52180.8
54653.4
59585.6
64426.1
65218.8
65022.4
64627.9
63987.1
63343.3
62939.7
62611.5
62347.7
62163.1
62017.1
250676
234070
218999
205286
192776
181334
170846
161211
152341
144158
136596
129595
123101
117068
111456
106228
101351
96798.5
92544.5
88567.9
84850.4
81376.7
78133.7
75110.9
72299.9
69693.9
67287.6
65076.4
63056.1
61222.6
59571.1
58096.1
56790.9
55647.4
54656.3
53807
53088.1
52487.4
51993
51593.3
51277.9
51039.2
50874.1
50789.6
50817.7
51051.4
51744.1
53588.4
57740.2
63071.7
65259.1
65008.7
64643.5
63979.6
63421.1
62968.6
62589.1
62325.9
62144.5
62005
250676
234070
218999
205286
192776
181334
170846
161211
152341
144158
136596
129595
123101
117068
111456
106228
101352
96798.6
92544.5
88568
84850.6
81376.8
78133.9
75111.1
72300.2
69694.3
67288
65076.9
63056.7
61223.2
59571.8
58096.9
56791.7
55648.2
54657
53807.7
53088.6
52487.6
51992.6
51591.6
51274.1
51031.6
50859.4
50760.3
50755.5
50911.6
51407.2
52743
56000.7
61330.2
65071.7
64756.1
64532.7
64123.1
63542.1
62979.6
62577.7
62320
62134.7
62008.3
250676
234070
218999
205286
192776
181334
170846
161211
152341
144158
136596
129595
123101
117068
111456
106228
101352
96798.7
92544.8
88568.3
84851
81377.4
78134.5
75111.9
72301.1
69695.4
67289.3
65078.3
63058.3
61225
59573.8
58099
56793.9
55650.5
54659.4
53810.1
53090.9
52489.7
51994.1
51592.1
51272.8
51026.9
50848.7
50737.8
50707.3
50803.2
51151
52098.2
54520.9
59321
64024.5
64723.4
64539.6
64181.5
63613
62987.1
62600.2
62325.7
62138.7
62039.6
250676
234070
218999
205286
192776
181334
170846
161211
152341
144159
136596
129595
123101
117069
111456
106228
101352
96799.2
92545.4
88569.2
84852.1
81378.8
78136.3
75114.1
72303.7
69698.5
67292.9
65082.3
63062.8
61230
59579.2
58104.8
56800.1
55657
54666.1
53816.9
53097.8
52496.4
52000.4
51597.5
51276.6
51027.9
50844.6
50724.1
50673.7
50723.3
50961.1
51622.8
53352.9
57268.4
62468
64763
64530.3
64192.5
63630.2
63064.3
62652.2
62339.5
62170.9
62108.7
250676
234070
218999
205286
192776
181334
170846
161211
152341
144159
136596
129595
123101
117069
111457
106229
101353
96800.6
92547.3
88571.6
84855.2
81382.7
78141.1
75119.9
72310.6
69706.5
67302.1
65092.8
63074.4
61242.8
59593.1
58119.7
56815.9
55673.6
54683.4
53834.7
53115.8
52514.5
52018.2
51614.7
51292.4
51041.3
50853.6
50725.2
50659.2
50674.2
50830.1
51286.2
52484.6
55420.7
60492.1
64447
64303.4
64103.7
63741.3
63212.8
62711.7
62386.5
62254.7
62228.3
250676
234070
218999
205286
192776
181334
170846
161211
152341
144159
136597
129595
123102
117070
111458
106231
101355
96804.1
92551.9
88577.7
84863
81392.4
78153
75134.2
72327.5
69726.1
67324.6
65118.1
63102.7
61273.8
59626.8
58155.9
56854.3
55713.9
54725.3
53877.8
53159.8
52559
52062.8
51658.9
51335.5
51082.3
50890.8
50755.8
50677.2
50666.2
50761.2
51070.7
51885.9
53964.9
58305.6
63114.4
64320.4
64146.8
63836.9
63340.8
62810.7
62520.1
62431.2
62447.4
250676
234070
218999
205286
192776
181334
170846
161211
152341
144159
136597
129596
123103
117072
111461
106235
101361
96812.3
92562.9
88592
84881.2
81415.1
78180.6
75167.3
72366.4
69771.1
67375.8
65175.8
63166.6
61344
59702.8
58237.4
56940.8
55804.8
54819.9
53975.5
53259.9
52660.7
52165.5
51761.9
51437.9
51183
50988.2
50847.5
50758.7
50727.8
50778.7
50983.4
51532
52945.7
56264.9
61327.2
64427.8
64125.5
63885.6
63553.9
63053.7
62773.3
62792.6
62820.6
250676
234070
218999
205286
192776
181334
170846
161211
152341
144160
136598
129598
123106
117076
111468
106244
101375
96830.3
92586.8
88623
84920.5
81463.7
78239.7
75237.7
72448.8
69866.1
67483.8
65296.8
63300.7
61490.8
59861.9
58408
57122
55995.6
55019.1
54181.7
53471.8
52877
52384.9
51983.1
51659.8
51404.2
51207.2
51061.8
50964.6
50918
50936.6
51065.9
51431.5
52370.3
54710.9
59268.2
63745.7
64275
64109.9
63842
63494.2
63262.1
63325.8
63445.6
250676
234070
219000
205286
192776
181334
170847
161212
152342
144161
136600
129601
123111
117085
111480
106263
101401
96866
92634.2
88684.3
84997.8
81559.1
78355.1
75374.5
72608.5
70049.6
67691.6
65529.3
63557.9
61772.2
60166.9
58735.6
57470.7
56363.6
55404.4
54582.1
53885
53300.6
52816.7
52420.9
52101.5
51847.9
51650.7
51502.6
51399.2
51340.5
51335.2
51411.6
51651.2
52268.4
53839.9
57402.3
62379
64889
64608.9
64392.3
64196.9
64124.5
64222.1
64372.5
250676
234070
219000
205286
192776
181334
170847
161212
152343
144163
136604
129607
123121
117100
111504
106297
101448
96930.1
92718.9