/*--------------------------------*- C++ -*----------------------------------*\
  =========                 |
  \\      /  F ield         | OpenFOAM: The Open Source CFD Toolbox
   \\    /   O peration     | Website:  https://openfoam.org
    \\  /    A nd           | Version:  9
     \\/     M anipulation  |
\*---------------------------------------------------------------------------*/
FoamFile
{
    format      ascii;
    class       volScalarField;
    location    "0.005";
    object      k;
}
// * * * * * * * * * * * * * * * * * * * * * * * * * * * * * * * * * * * * * //

dimensions      [0 2 -2 0 0 0 0];

internalField   nonuniform List<scalar> 
36400
(
969.268
934.541
902.034
871.549
842.911
815.964
790.571
766.608
743.969
722.56
702.299
683.117
664.953
647.759
631.492
616.117
601.606
587.93
575.066
562.989
551.675
541.1
531.24
522.071
513.571
505.72
498.5
491.896
485.896
480.49
475.665
471.409
467.701
464.516
461.819
459.567
457.708
456.184
454.931
453.887
452.994
452.203
451.475
450.789
450.141
449.547
449.042
448.687
448.576
448.857
449.827
452.198
457.739
471.205
501.83
550.613
591.129
605.086
616.992
629.296
969.268
934.541
902.034
871.549
842.911
815.963
790.569
766.604
743.962
722.548
702.279
683.085
664.903
647.683
631.382
615.963
601.395
587.65
574.703
562.529
551.107
540.412
530.423
521.117
512.476
504.482
497.118
490.373
484.234
478.692
473.735
469.349
465.515
462.208
459.392
457.025
455.058
453.434
452.092
450.973
450.02
449.186
448.433
447.74
447.099
446.526
446.055
445.748
445.703
446.1
447.342
450.372
457.595
474.579
505.612
536.729
547.064
548.867
551.553
555.461
969.268
934.541
902.034
871.549
842.91
815.962
790.565
766.598
743.951
722.528
702.246
683.031
664.819
647.557
631.199
615.705
601.041
587.178
574.09
561.754
550.146
539.246
529.036
519.498
510.616
502.377
494.768
487.781
481.405
475.631
470.45
465.846
461.8
458.287
455.273
452.718
450.574
448.788
447.303
446.064
445.018
444.119
443.33
442.629
442.007
441.475
441.064
440.836
440.907
441.511
443.222
447.437
457.7
479.885
509.588
526.644
530.021
531.471
532.705
532.56
969.268
934.541
902.034
871.549
842.909
815.96
790.562
766.591
743.938
722.506
702.208
682.97
664.724
647.415
630.992
615.412
600.64
586.644
573.396
560.872
549.052
537.918
527.453
517.646
508.486
499.962
492.069
484.801
478.15
472.109
466.669
461.816
457.531
453.788
450.555
447.793
445.457
443.497
441.862
440.5
439.36
438.4
437.583
436.886
436.297
435.825
435.5
435.39
435.64
436.592
439.109
445.399
460.381
487.322
511.845
516.22
516.962
518.499
520.785
521.752
969.268
934.541
902.034
871.548
842.909
815.959
790.559
766.585
743.927
722.486
702.175
682.916
664.64
647.287
630.806
615.149
600.278
586.16
572.765
560.07
548.055
536.703
526.003
515.946
506.525
497.737
489.577
482.045
475.136
468.846
463.167
458.084
453.58
449.63
446.202
443.259
440.758
438.653
436.894
435.432
434.221
433.219
432.39
431.711
431.17
430.773
430.554
430.6
431.112
432.617
436.446
446.025
466.855
494.307
507.415
507.51
507.543
508.311
510.44
512.479
969.268
934.541
902.034
871.548
842.908
815.957
790.556
766.58
743.919
722.471
702.15
682.875
664.576
647.19
630.664
614.948
600.001
585.789
572.28
559.451
547.282
535.76
524.874
514.618
504.99
495.988
487.615
479.871
472.756
466.266
460.395
455.131
450.457
446.347
442.771
439.693
437.071
434.861
433.016
431.489
430.234
429.212
428.387
427.737
427.25
426.936
426.841
427.081
427.967
430.309
436.221
450.498
476.366
499.549
501.671
501.301
501.031
501.327
502.536
504.176
969.268
934.541
902.034
871.548
842.908
815.957
790.555
766.577
743.913
722.461
702.133
682.848
664.533
647.126
630.57
614.814
599.816
585.54
571.954
559.033
546.759
535.119
524.103
513.709
503.935
494.784
486.26
478.366
471.104
464.473
458.467
453.076
448.283
444.063
440.388
437.221
434.522
432.246
430.349
428.785
427.508
426.482
425.671
425.054
424.623
424.396
424.438
424.926
426.346
429.943
438.989
459.043
486.217
499.633
498.353
497.385
496.535
496.341
497.037
498.02
969.268
934.541
902.034
871.548
842.908
815.956
790.554
766.576
743.91
722.456
702.123
682.832
664.508
647.088
630.514
614.735
599.706
585.391
571.758
558.782
546.443
534.73
523.634
513.153
503.288
494.043
485.423
477.433
470.077
463.356
457.265
451.794
446.926
442.639
438.903
435.682
432.938
430.625
428.7
427.118
425.834
424.811
424.019
423.436
423.061
422.925
423.126
423.943
426.114
431.588
444.994
470.376
494.567
497.431
496.693
495.392
493.657
492.551
493.017
493.793
969.268
934.541
902.034
871.548
842.908
815.956
790.553
766.575
743.908
722.453
702.118
682.823
664.495
647.068
630.484
614.692
599.647
585.311
571.652
558.645
546.271
534.517
523.376
512.846
502.929
493.629
484.954
476.909
469.499
462.726
456.585
451.067
446.156
441.831
438.06
434.811
432.042
429.71
427.772
426.182
424.898
423.884
423.111
422.562
422.245
422.21
422.611
423.878
427.126
435.336
454.172
482.011
498.608
497.113
495.931
494.254
491.668
490.273
490.484
490.741
969.268
934.541
902.034
871.548
842.908
815.956
790.553
766.574
743.907
722.451
702.116
682.819
664.489
647.058
630.47
614.671
599.618
585.272
571.6
558.577
546.185
534.41
523.246
512.69
502.746
493.418
484.714
476.64
469.201
462.399
456.232
450.689
445.756
441.41
437.622
434.357
431.576
429.235
427.291
425.7
424.42
423.416
422.663
422.15
421.897
421.983
422.646
424.532
429.331
441.317
465.656
491.772
498.211
497.409
495.85
493.28
490.522
489.056
488.677
488.859
969.268
934.541
902.034
871.548
842.908
815.956
790.553
766.574
743.907
722.451
702.115
682.818
664.486
647.054
630.463
614.662
599.605
585.254
571.576
558.546
546.145
534.361
523.185
512.618
502.66
493.319
484.6
476.511
469.059
462.243
456.062
450.507
445.563
441.207
437.41
434.138
431.351
429.007
427.062
425.472
424.198
423.207
422.476
422.003
421.824
422.064
423.087
425.83
432.837
449.604
477.67
498.919
498.227
497.262
495.416
492.668
490.07
488.411
487.793
487.741
969.268
934.541
902.034
871.548
842.908
815.956
790.553
766.574
743.907
722.45
702.114
682.817
664.485
647.052
630.461
614.658
599.6
585.246
571.566
558.533
546.128
534.34
523.159
512.586
502.623
493.275
484.55
476.455
468.995
462.173
455.986
450.426
445.476
441.115
437.315
434.04
431.251
428.906
426.961
425.375
424.108
423.131
422.425
421.999
421.912
422.356
423.858
427.796
437.834
459.944
488.355
500.604
499.498
497.793
494.865
491.919
489.798
488.208
487.389
487.141
969.268
934.541
902.034
871.548
842.908
815.956
790.553
766.574
743.907
722.45
702.114
682.817
664.484
647.052
630.46
614.657
599.598
585.243
571.562
558.528
546.122
534.331
523.149
512.574
502.608
493.257
484.529
476.431
468.969
462.144
455.955
450.392
445.44
441.077
437.275
433.999
431.209
428.865
426.923
425.341
424.083
423.122
422.447
422.077
422.107
422.822
424.966
430.553
444.488
471.265
496.681
500.434
499.58
497.769
494.817
491.548
489.56
488.177
487.259
486.811
969.268
934.541
902.034
871.548
842.908
815.956
790.553
766.574
743.907
722.45
702.114
682.816
664.484
647.051
630.459
614.656
599.597
585.242
571.56
558.526
546.119
534.328
523.145
512.569
502.602
493.25
484.521
476.422
468.959
462.133
455.942
450.378
445.425
441.062
437.259
433.983
431.194
428.851
426.911
425.336
424.089
423.147
422.507
422.206
422.386
423.453
426.458
434.274
452.829
482.202
502.243
500.664
499.581
497.49
494.472
491.551
489.481
488.188
487.281
486.686
969.268
934.541
902.034
871.548
842.908
815.956
790.553
766.574
743.907
722.45
702.114
682.816
664.484
647.051
630.459
614.656
599.596
585.242
571.56
558.525
546.118
534.327
523.143
512.567
502.6
493.248
484.518
476.419
468.955
462.129
455.938
450.373
445.42
441.057
437.254
433.978
431.19
428.849
426.913
425.344
424.109
423.19
422.592
422.376
422.749
424.269
428.416
439.121
462.52
491.575
503.239
502.053
500.214
496.756
493.859
491.53
489.586
488.262
487.378
486.713
969.268
934.541
902.034
871.548
842.908
815.956
790.553
766.574
743.907
722.45
702.114
682.816
664.484
647.051
630.459
614.656
599.596
585.242
571.56
558.525
546.118
534.326
523.143
512.566
502.599
493.247
484.517
476.418
468.954
462.127
455.936
450.372
445.418
441.055
437.252
433.977
431.19
428.851
426.92
425.359
424.139
423.245
422.697
422.586
423.205
425.306
430.947
445.18
472.676
498.803
503.061
502.155
500.161
496.837
493.481
491.413
489.747
488.423
487.523
486.823
969.268
934.541
902.034
871.548
842.908
815.956
790.553
766.574
743.907
722.45
702.114
682.816
664.484
647.051
630.459
614.656
599.596
585.242
571.56
558.525
546.118
534.326
523.143
512.566
502.599
493.247
484.517
476.417
468.953
462.127
455.936
450.371
445.418
441.055
437.252
433.978
431.192
428.856
426.93
425.378
424.174
423.311
422.821
422.84
423.761
426.599
434.157
452.42
482.355
503.915
502.909
501.849
499.798
496.8
493.464
491.338
489.883
488.638
487.706
486.998
969.268
934.541
902.034
871.548
842.908
815.956
790.553
766.574
743.907
722.45
702.114
682.816
664.484
647.051
630.459
614.656
599.596
585.242
571.56
558.525
546.118
534.326
523.143
512.566
502.599
493.247
484.517
476.417
468.953
462.127
455.936
450.371
445.418
441.055
437.253
433.979
431.196
428.863
426.942
425.4
424.215
423.386
422.966
423.143
424.432
428.196
438.123
460.605
490.802
505.625
504.216
501.913
499.101
496.26
493.528
491.393
490.001
488.863
487.928
487.231
969.268
934.541
902.034
871.548
842.908
815.956
790.553
766.574
743.907
722.45
702.114
682.816
664.484
647.051
630.459
614.656
599.596
585.242
571.56
558.525
546.118
534.326
523.143
512.566
502.599
493.247
484.517
476.417
468.953
462.127
455.936
450.371
445.418
441.055
437.254
433.981
431.2
428.87
426.956
425.425
424.26
423.47
423.133
423.501
425.238
430.145
442.866
469.183
497.667
505.655
504.568
502.43
498.62
495.679
493.484
491.532
490.137
489.076
488.174
487.474
969.268
934.541
902.034
871.548
842.908
815.956
790.553
766.574
743.907
722.45
702.114
682.816
664.484
647.051
630.459
614.656
599.596
585.242
571.56
558.525
546.118
534.326
523.143
512.566
502.599
493.247
484.517
476.417
468.953
462.127
455.936
450.371
445.419
441.056
437.255
433.984
431.204
428.878
426.971
425.453
424.31
423.565
423.324
423.915
426.186
432.484
448.348
477.53
502.841
505.372
504.398
502.239
498.727
495.355
493.361
491.675
490.301
489.276
488.413
487.719
969.268
934.541
902.034
871.548
842.908
815.956
790.553
766.574
743.907
722.45
702.114
682.816
664.484
647.051
630.459
614.656
599.596
585.242
571.56
558.525
546.118
534.326
523.143
512.566
502.599
493.247
484.517
476.417
468.953
462.127
455.936
450.372
445.419
441.057
437.257
433.986
431.209
428.888
426.988
425.483
424.365
423.669
423.539
424.387
427.292
435.233
454.434
485.163
506.439
505.11
504.015
501.903
498.697
495.285
493.257
491.782
490.479
489.466
488.654
487.972
969.268
934.541
902.034
871.548
842.908
815.956
790.553
766.574
743.907
722.45
702.114
682.816
664.484
647.051
630.459
614.656
599.596
585.242
571.56
558.525
546.118
534.326
523.143
512.566
502.599
493.247
484.517
476.417
468.953
462.127
455.936
450.372
445.419
441.058
437.258
433.989
431.214
428.897
427.005
425.515
424.424
423.784
423.78
424.92
428.557
438.376
460.911
491.776
507.83
506.139
503.654
501.266
498.34
495.312
493.228
491.86
490.652
489.653
488.865
488.199
969.268
934.541
902.034
871.548
842.908
815.956
790.553
766.574
743.907
722.45
702.114
682.816
664.484
647.051
630.459
614.656
599.596
585.242
571.56
558.525
546.118
534.326
523.143
512.566
502.599
493.247
484.517
476.417
468.953
462.127
455.936
450.372
445.42
441.058
437.26
433.992
431.22
428.908
427.024
425.548
424.487
423.907
424.044
425.512
429.986
441.876
467.45
497.292
507.983
506.561
504.261
500.538
497.861
495.311
493.265
491.928
490.809
489.827
489.054
488.404
969.268
934.541
902.034
871.548
842.908
815.956
790.553
766.574
743.907
722.45
702.114
682.816
664.484
647.051
630.459
614.656
599.596
585.242
571.56
558.525
546.118
534.326
523.143
512.566
502.599
493.247
484.517
476.417
468.953
462.127
455.936
450.372
445.42
441.059
437.262
433.995
431.226
428.918
427.043
425.583
424.552
424.039
424.328
426.157
431.568
445.661
473.726
501.728
507.811
506.676
504.421
500.245
497.419
495.254
493.338
492.003
490.949
489.997
489.232
488.605
969.268
934.541
902.034
871.548
842.908
815.956
790.553
766.574
743.907
722.45
702.114
682.816
664.484
647.051
630.459
614.656
599.596
585.242
571.56
558.525
546.118
534.326
523.143
512.566
502.599
493.247
484.517
476.417
468.953
462.127
455.936
450.373
445.421
441.06
437.263
433.999
431.232
428.929
427.063
425.619
424.62
424.177
424.628
426.85
433.279
449.622
479.495
505.124
507.596
506.52
504.199
500.365
497.13
495.162
493.421
492.09
491.077
490.158
489.402
488.793
969.268
934.541
902.034
871.548
842.908
815.956
790.553
766.574
743.907
722.45
702.114
682.816
664.484
647.051
630.459
614.656
599.596
585.242
571.56
558.525
546.118
534.326
523.143
512.566
502.599
493.247
484.517
476.417
468.953
462.127
455.937
450.373
445.421
441.061
437.265
434.002
431.238
428.94
427.082
425.655
424.689
424.319
424.939
427.576
435.085
453.641
484.623
507.628
507.376
506.287
504.007
500.375
496.993
495.076
493.5
492.189
491.197
490.307
489.564
488.971
969.268
934.541
902.034
871.548
842.908
815.956
790.553
766.574
743.907
722.45
702.114
682.816
664.484
647.051
630.459
614.656
599.596
585.242
571.56
558.525
546.118
534.326
523.143
512.566
502.599
493.247
484.517
476.417
468.953
462.127
455.937
450.373
445.422
441.062
437.267
434.005
431.244
428.951
427.102
425.691
424.757
424.463
425.254
428.319
436.938
457.599
489.069
509.363
507.258
506.03
503.799
500.324
496.955
495.018
493.569
492.295
491.313
490.447
489.717
489.139
969.268
934.541
902.034
871.548
842.908
815.956
790.553
766.574
743.907
722.45
702.114
682.816
664.484
647.051
630.459
614.656
599.596
585.242
571.56
558.525
546.118
534.326
523.143
512.566
502.599
493.247
484.517
476.418
468.954
462.127
455.937
450.373
445.422
441.063
437.269
434.008
431.249
428.961
427.12
425.725
424.824
424.605
425.569
429.066
438.784
461.37
492.828
510.083
507.972
505.675
503.392
500.207
496.968
494.995
493.632
492.401
491.424
490.58
489.86
489.294
969.268
934.541
902.034
871.548
842.908
815.956
790.553
766.574
743.907
722.45
702.114
682.816
664.484
647.051
630.459
614.656
599.596
585.242
571.56
558.525
546.118
534.326
523.143
512.566
502.599
493.247
484.517
476.418
468.954
462.128
455.937
450.374
445.423
441.064
437.27
434.011
431.255
428.971
427.138
425.757
424.888
424.741
425.871
429.792
440.574
464.836
495.943
510.334
508.521
505.721
502.945
500.01
496.994
495
493.688
492.501
491.528
490.702
489.992
489.437
969.268
934.541
902.034
871.548
842.908
815.956
790.553
766.574
743.907
722.45
702.114
682.816
664.484
647.051
630.459
614.656
599.596
585.242
571.56
558.525
546.118
534.326
523.143
512.566
502.599
493.247
484.517
476.418
468.954
462.128
455.937
450.374
445.423
441.065
437.272
434.014
431.26
428.979
427.154
425.787
424.947
424.866
426.153
430.475
442.244
467.904
498.476
510.413
508.69
506.006
502.596
499.808
497.016
495.022
493.738
492.59
491.622
490.809
490.108
489.563
969.268
934.541
902.034
871.548
842.908
815.956
790.553
766.574
743.907
722.45
702.114
682.816
664.484
647.051
630.459
614.656
599.596
585.242
571.56
558.525
546.118
534.326
523.143
512.566
502.599
493.247
484.517
476.418
468.954
462.128
455.937
450.374
445.424
441.065
437.273
434.016
431.264
428.987
427.168
425.813
424.999
424.978
426.405
431.091
443.735
470.511
500.48
510.391
508.814
506.197
502.352
499.631
497.029
495.052
493.782
492.666
491.703
490.9
490.208
489.672
969.268
934.541
902.034
871.548
842.908
815.956
790.553
766.574
743.907
722.45
702.114
682.816
664.484
647.051
630.459
614.656
599.596
585.242
571.56
558.525
546.118
534.326
523.143
512.566
502.599
493.247
484.517
476.418
468.954
462.128
455.937
450.374
445.424
441.066
437.274
434.018
431.267
428.994
427.179
425.835
425.043
425.072
426.62
431.617
444.994
472.62
502.008
510.339
508.884
506.319
502.191
499.492
497.035
495.084
493.82
492.729
491.77
490.974
490.29
489.761
969.268
934.541
902.034
871.548
842.908
815.956
790.553
766.574
743.907
722.45
702.114
682.816
664.484
647.051
630.459
614.656
599.596
585.242
571.56
558.525
546.118
534.326
523.143
512.566
502.599
493.247
484.517
476.418
468.954
462.128
455.937
450.374
445.424
441.066
437.275
434.02
431.27
428.998
427.188
425.851
425.077
425.146
426.789
432.032
445.979
474.213
503.109
510.293
508.916
506.398
502.091
499.391
497.038
495.112
493.85
492.777
491.822
491.031
490.352
489.83
969.268
934.541
902.034
871.548
842.908
815.956
790.553
766.574
743.907
722.45
702.114
682.816
664.484
647.051
630.459
614.656
599.596
585.242
571.56
558.525
546.118
534.326
523.143
512.566
502.599
493.247
484.517
476.418
468.954
462.128
455.937
450.374
445.424
441.067
437.275
434.021
431.272
429.002
427.194
425.863
425.101
425.197
426.905
432.319
446.656
475.276
503.818
510.256
508.925
506.439
502.032
499.323
497.035
495.13
493.869
492.807
491.856
491.068
490.393
489.874
969.268
934.541
902.034
871.548
842.908
815.956
790.553
766.574
743.907
722.45
702.114
682.816
664.484
647.051
630.459
614.656
599.596
585.242
571.56
558.525
546.118
534.326
523.143
512.566
502.599
493.247
484.517
476.418
468.954
462.128
455.937
450.374
445.424
441.067
437.276
434.021
431.273
429.004
427.197
425.869
425.113
425.222
426.964
432.463
446.992
475.791
504.15
510.24
508.928
506.456
502.009
499.293
497.032
495.138
493.878
492.821
491.872
491.085
490.412
489.894
969.268
934.541
902.034
871.548
842.908
815.956
790.553
766.574
743.907
722.45
702.114
682.816
664.484
647.051
630.459
614.656
599.596
585.242
571.56
558.525
546.118
534.326
523.143
512.566
502.599
493.247
484.517
476.418
468.954
462.128
455.937
450.374
445.424
441.067
437.276
434.021
431.273
429.004
427.197
425.869
425.113
425.222
426.964
432.463
446.992
475.791
504.151
510.241
508.929
506.457
502.009
499.293
497.032
495.138
493.878
492.821
491.872
491.086
490.412
489.894
969.268
934.541
902.034
871.548
842.908
815.956
790.553
766.574
743.907
722.45
702.114
682.816
664.484
647.051
630.459
614.656
599.596
585.242
571.56
558.525
546.118
534.326
523.143
512.566
502.599
493.247
484.517
476.418
468.954
462.128
455.937
450.374
445.424
441.067
437.275
434.021
431.272
429.002
427.194
425.863
425.101
425.197
426.905
432.319
446.656
475.276
503.82
510.258
508.927
506.442
502.034
499.324
497.036
495.131
493.87
492.808
491.857
491.069
490.393
489.874
969.268
934.541
902.034
871.548
842.908
815.956
790.553
766.574
743.907
722.45
702.114
682.816
664.484
647.051
630.459
614.656
599.596
585.242
571.56
558.525
546.118
534.326
523.143
512.566
502.599
493.247
484.517
476.418
468.954
462.128
455.937
450.374
445.424
441.066
437.275
434.02
431.27
428.998
427.188
425.851
425.077
425.146
426.789
432.032
445.978
474.212
503.112
510.297
508.92
506.402
502.095
499.393
497.04
495.114
493.851
492.778
491.823
491.032
490.353
489.83
969.268
934.541
902.034
871.548
842.908
815.956
790.553
766.574
743.907
722.45
702.114
682.816
664.484
647.051
630.459
614.656
599.596
585.242
571.56
558.525
546.118
534.326
523.143
512.566
502.599
493.247
484.517
476.418
468.954
462.128
455.937
450.374
445.424
441.066
437.274
434.018
431.267
428.994
427.179
425.835
425.043
425.072
426.62
431.617
444.993
472.62
502.01
510.345
508.889
506.324
502.195
499.495
497.038
495.086
493.822
492.731
491.772
490.976
490.291
489.763
969.268
934.541
902.034
871.548
842.908
815.956
790.553
766.574
743.907
722.45
702.114
682.816
664.484
647.051
630.459
614.656
599.596
585.242
571.56
558.525
546.118
534.326
523.143
512.566
502.599
493.247
484.517
476.418
468.954
462.128
455.937
450.374
445.424
441.065
437.273
434.016
431.264
428.987
427.168
425.813
424.999
424.977
426.405
431.091
443.733
470.51
500.483
510.398
508.82
506.203
502.357
499.635
497.032
495.055
493.785
492.669
491.706
490.902
490.211
489.675
969.268
934.541
902.034
871.548
842.908
815.956
790.553
766.574
743.907
722.45
702.114
682.816
664.484
647.051
630.459
614.656
599.596
585.242
571.56
558.525
546.118
534.326
523.143
512.566
502.599
493.247
484.517
476.418
468.954
462.128
455.937
450.374
445.423
441.065
437.272
434.014
431.26
428.979
427.154
425.787
424.947
424.866
426.152
430.474
442.242
467.902
498.478
510.42
508.697
506.011
502.602
499.812
497.02
495.025
493.742
492.593
491.626
490.813
490.113
489.568
969.268
934.541
902.034
871.548
842.908
815.956
790.553
766.574
743.907
722.45
702.114
682.816
664.484
647.051
630.459
614.656
599.596
585.242
571.56
558.525
546.118
534.326
523.143
512.566
502.599
493.247
484.517
476.418
468.954
462.128
455.937
450.374
445.423
441.064
437.27
434.011
431.255
428.971
427.138
425.757
424.888
424.74
425.871
429.791
440.573
464.834
495.945
510.341
508.528
505.727
502.951
500.015
496.998
495.003
493.692
492.505
491.532
490.706
489.997
489.443
969.268
934.541
902.034
871.548
842.908
815.956
790.553
766.574
743.907
722.45
702.114
682.816
664.484
647.051
630.459
614.656
599.596
585.242
571.56
558.525
546.118
534.326
523.143
512.566
502.599
493.247
484.517
476.418
468.954
462.127
455.937
450.373
445.422
441.063
437.269
434.008
431.249
428.961
427.12
425.725
424.824
424.605
425.568
429.065
438.783
461.368
492.829
510.089
507.977
505.681
503.397
500.211
496.971
494.998
493.635
492.405
491.428
490.584
489.865
489.3
969.268
934.541
902.034
871.548
842.908
815.956
790.553
766.574
743.907
722.45
702.114
682.816
664.484
647.051
630.459
614.656
599.596
585.242
571.56
558.525
546.118
534.326
523.143
512.566
502.599
493.247
484.517
476.417
468.953
462.127
455.937
450.373
445.422
441.062
437.267
434.005
431.244
428.951
427.102
425.691
424.757
424.463
425.254
428.319
436.936
457.597
489.069
509.368
507.262
506.035
503.803
500.327
496.958
495.021
493.572
492.297
491.316
490.451
489.721
489.143
969.268
934.541
902.034
871.548
842.908
815.956
790.553
766.574
743.907
722.45
702.114
682.816
664.484
647.051
630.459
614.656
599.596
585.242
571.56
558.525
546.118
534.326
523.143
512.566
502.599
493.247
484.517
476.417
468.953
462.127
455.936
450.373
445.421
441.061
437.265
434.002
431.238
428.94
427.082
425.655
424.689
424.319
424.939
427.575
435.084
453.639
484.622
507.631
507.38
506.291
504.01
500.377
496.995
495.077
493.501
492.191
491.198
490.309
489.566
488.974
969.268
934.541
902.034
871.548
842.908
815.956
790.553
766.574
743.907
722.45
702.114
682.816
664.484
647.051
630.459
614.656
599.596
585.242
571.56
558.525
546.118
534.326
523.143
512.566
502.599
493.247
484.517
476.417
468.953
462.127
455.936
450.373
445.421
441.06
437.263
433.999
431.232
428.929
427.063
425.619
424.62
424.177
424.628
426.849
433.279
449.621
479.494
505.125
507.599
506.522
504.2
500.366
497.131
495.163
493.422
492.09
491.077
490.158
489.402
488.793
969.268
934.541
902.034
871.548
842.908
815.956
790.553
766.574
743.907
722.45
702.114
682.816
664.484
647.051
630.459
614.656
599.596
585.242
571.56
558.525
546.118
534.326
523.143
512.566
502.599
493.247
484.517
476.417
468.953
462.127
455.936
450.372
445.42
441.059
437.262
433.995
431.226
428.918
427.043
425.583
424.552
424.039
424.328
426.157
431.567
445.66
473.724
501.728
507.812
506.676
504.421
500.244
497.418
495.253
493.337
492.001
490.948
489.995
489.23
488.603
969.268
934.541
902.034
871.548
842.908
815.956
790.553
766.574
743.907
722.45
702.114
682.816
664.484
647.051
630.459
614.656
599.596
585.242
571.56
558.525
546.118
534.326
523.143
512.566
502.599
493.247
484.517
476.417
468.953
462.127
455.936
450.372
445.42
441.058
437.26
433.992
431.22
428.908
427.024
425.549
424.487
423.907
424.044
425.512
429.986
441.876
467.448
497.29
507.981
506.559
504.259
500.535
497.858
495.308
493.262
491.925
490.806
489.824
489.051
488.4
969.268
934.541
902.034
871.548
842.908
815.956
790.553
766.574
743.907
722.45
702.114
682.816
664.484
647.051
630.459
614.656
599.596
585.242
571.56
558.525
546.118
534.326
523.143
512.566
502.599
493.247
484.517
476.417
468.953
462.127
455.936
450.372
445.419
441.058
437.258
433.989
431.214
428.897
427.005
425.515
424.424
423.784
423.78
424.92
428.557
438.376
460.91
491.773
507.826
506.135
503.65
501.262
498.336
495.308
493.223
491.855
490.647
489.648
488.86
488.193
969.268
934.541
902.034
871.548
842.908
815.956
790.553
766.574
743.907
722.45
702.114
682.816
664.484
647.051
630.459
614.656
599.596
585.242
571.56
558.525
546.118
534.326
523.143
512.566
502.599
493.247
484.517
476.417
468.953
462.127
455.936
450.372
445.419
441.057
437.257
433.986
431.209
428.888
426.988
425.483
424.365
423.669
423.539
424.387
427.292
435.233
454.433
485.16
506.434
505.104
504.009
501.897
498.691
495.28
493.252
491.777
490.473
489.461
488.648
487.966
969.268
934.541
902.034
871.548
842.908
815.956
790.553
766.574
743.907
722.45
702.114
682.816
664.484
647.051
630.459
614.656
599.596
585.242
571.56
558.525
546.118
534.326
523.143
512.566
502.599
493.247
484.517
476.417
468.953
462.127
455.936
450.371
445.419
441.056
437.255
433.984
431.204
428.878
426.971
425.453
424.311
423.565
423.324
423.915
426.186
432.484
448.348
477.528
502.835
505.364
504.391
502.232
498.72
495.349
493.355
491.668
490.295
489.27
488.407
487.712
969.268
934.541
902.034
871.548
842.908
815.956
790.553
766.574
743.907
722.45
702.114
682.816
664.484
647.051
630.459
614.656
599.596
585.242
571.56
558.525
546.118
534.326
523.143
512.566
502.599
493.247
484.517
476.417
468.953
462.127
455.936
450.371
445.418
441.055
437.254
433.981
431.2
428.87
426.956
425.425
424.26
423.47
423.133
423.502
425.238
430.145
442.866
469.182
497.661
505.646
504.559
502.422
498.612
495.672
493.477
491.525
490.13
489.07
488.168
487.469
969.268
934.541
902.034
871.548
842.908
815.956
790.553
766.574
743.907
722.45
702.114
682.816
664.484
647.051
630.459
614.656
599.596
585.242
571.56
558.525
546.118
534.326
523.143
512.566
502.599
493.247
484.517
476.417
468.953
462.127
455.936
450.371
445.418
441.055
437.253
433.979
431.196
428.863
426.942
425.4
424.215
423.386
422.966
423.143
424.432
428.196
438.123
460.604
490.797
505.615
504.206
501.904
499.092
496.252
493.521
491.386
489.995
488.857
487.923
487.226
969.268
934.541
902.034
871.548
842.908
815.956
790.553
766.574
743.907
722.45
702.114
682.816
664.484
647.051
630.459
614.656
599.596
585.242
571.56
558.525
546.118
534.326
523.143
512.566
502.599
493.247
484.517
476.417
468.953
462.127
455.936
450.371
445.418
441.055
437.252
433.978
431.192
428.856
426.93
425.378
424.174
423.311
422.821
422.841
423.761
426.6
434.158
452.42
482.351
503.905
502.899
501.839
499.789
496.792
493.457
491.332
489.878
488.633
487.702
486.994
969.268
934.541
902.034
871.548
842.908
815.956
790.553
766.574
743.907
722.45
702.114
682.816
664.484
647.051
630.459
614.656
599.596
585.242
571.56
558.525
546.118
534.326
523.143
512.566
502.599
493.247
484.517
476.418
468.954
462.127
455.936
450.372
445.418
441.055
437.252
433.977
431.19
428.851
426.92
425.359
424.138
423.245
422.697
422.586
423.205
425.306
430.948
445.18
472.673
498.794
503.05
502.145
500.152
496.83
493.475
491.407
489.743
488.419
487.52
486.821
969.268
934.541
902.034
871.548
842.908
815.956
790.553
766.574
743.907
722.45
702.114
682.816
664.484
647.051
630.459
614.656
599.596
585.242
571.56
558.525
546.118
534.327
523.143
512.567
502.6
493.248
484.518
476.419
468.955
462.129
455.938
450.373
445.42
441.056
437.254
433.978
431.189
428.848
426.913
425.343
424.109
423.19
422.591
422.376
422.748
424.269
428.416
439.121
462.518
491.568
503.229
502.044
500.206
496.749
493.853
491.526
489.582
488.26
487.377
486.713
969.268
934.541
902.034
871.548
842.908
815.956
790.553
766.574
743.907
722.45
702.114
682.816
664.484
647.051
630.459
614.656
599.597
585.242
571.56
558.526
546.119
534.328
523.145
512.569
502.602
493.25
484.521
476.422
468.959
462.133
455.942
450.378
445.425
441.062
437.259
433.982
431.193
428.85
426.911
425.335
424.088
423.146
422.506
422.205
422.385
423.453
426.457
434.273
452.827
482.197
502.233
500.656
499.573
497.484
494.468
491.548
489.48
488.187
487.282
486.687
969.268
934.541
902.034
871.548
842.908
815.956
790.553
766.574
743.907
722.45
702.114
682.817
664.484
647.052
630.46
614.657
599.598
585.243
571.562
558.528
546.122
534.331
523.149
512.574
502.608
493.257
484.53
476.432
468.969
462.144
455.955
450.391
445.439
441.076
437.274
433.997
431.208
428.863
426.921
425.339
424.081
423.12
422.444
422.075
422.105
422.82
424.964
430.551
444.485
471.26
496.673
500.427
499.574
497.764
494.815
491.548
489.56
488.179
487.262
486.814
969.268
934.541
902.034
871.548
842.908
815.956
790.553
766.574
743.907
722.45
702.114
682.817
664.485
647.052
630.461
614.658
599.6
585.247
571.566
558.533
546.129
534.34
523.16
512.587
502.624
493.276
484.551
476.456
468.996
462.174
455.987
450.426
445.476
441.114
437.313
434.037
431.248
428.902
426.957
425.37
424.103
423.125
422.42
421.994
421.907
422.352
423.854
427.792
437.83
459.938
488.348
500.6
499.496
497.792
494.867
491.922
489.802
488.214
487.396
487.149
969.268
934.541
902.034
871.548
842.908
815.956
790.553
766.574
743.907
722.451
702.115
682.818
664.486
647.054
630.464
614.663
599.606
585.255
571.577
558.548
546.147
534.363
523.188
512.62
502.663
493.321
484.603
476.514
469.061
462.245
456.064
450.508
445.563
441.205
437.407
434.134
431.345
429
427.053
425.462
424.187
423.196
422.465
421.992
421.814
422.056
423.08
425.825
432.833
449.6
477.666
498.919
498.232
497.269
495.425
492.678
490.082
488.424
487.807
487.756
969.268
934.541
902.034
871.548
842.908
815.956
790.553
766.574
743.907
722.451
702.116
682.82
664.489
647.059
630.471
614.673
599.62
585.274
571.603
558.581
546.19
534.416
523.253
512.698
502.754
493.426
484.722
476.648
469.209
462.407
456.238
450.695
445.76
441.411
437.621
434.353
431.569
429.225
427.278
425.685
424.403
423.399
422.646
422.135
421.884
421.974
422.642
424.531
429.335
441.323
465.663
491.787
498.234
497.434
495.877
493.307
490.551
489.084
488.705
488.887
969.268
934.541
902.034
871.548
842.908
815.956
790.553
766.575
743.908
722.453
702.119
682.824
664.496
647.07
630.487
614.696
599.652
585.318
571.661
558.656
546.285
534.533
523.394
512.866
502.95
493.652
484.978
476.934
469.524
462.75
456.608
451.089
446.176
441.847
438.073
434.818
432.043
429.707
427.763
426.169
424.883
423.869
423.097
422.553
422.243
422.216
422.627
423.905
427.162
435.38
454.221
482.068