/*--------------------------------*- C++ -*----------------------------------*\
  =========                 |
  \\      /  F ield         | OpenFOAM: The Open Source CFD Toolbox
   \\    /   O peration     | Website:  https://openfoam.org
    \\  /    A nd           | Version:  9
     \\/     M anipulation  |
\*---------------------------------------------------------------------------*/
FoamFile
{
    format      ascii;
    class       volScalarField;
    location    "0.005";
    object      nut;
}
// * * * * * * * * * * * * * * * * * * * * * * * * * * * * * * * * * * * * * //

dimensions      [0 2 -1 0 0 0 0];

internalField   nonuniform List<scalar> 
36400
(
0.337301
0.33581
0.334384
0.333017
0.331705
0.330447
0.329238
0.328077
0.326963
0.325896
0.324878
0.323909
0.322993
0.322132
0.321328
0.320583
0.319897
0.31927
0.318698
0.318177
0.317703
0.317269
0.31687
0.3165
0.316156
0.315833
0.315529
0.315241
0.314966
0.314699
0.314437
0.314175
0.313908
0.313632
0.313347
0.313054
0.312757
0.312461
0.312176
0.311909
0.311668
0.31146
0.311288
0.311155
0.311059
0.310998
0.310972
0.31098
0.311036
0.311173
0.31149
0.312254
0.314156
0.318988
0.329925
0.346521
0.359322
0.363157
0.366362
0.369506
0.337301
0.33581
0.334384
0.333017
0.331705
0.330446
0.329237
0.328075
0.32696
0.325892
0.324871
0.323898
0.322976
0.322108
0.321295
0.32054
0.319843
0.319204
0.318622
0.318092
0.317611
0.317175
0.316779
0.316419
0.31609
0.315789
0.315514
0.31526
0.315024
0.314802
0.314588
0.314377
0.314163
0.313943
0.313713
0.313474
0.313229
0.312983
0.312743
0.312518
0.312313
0.312136
0.311991
0.311879
0.311802
0.31176
0.311753
0.311787
0.31188
0.312085
0.312546
0.31363
0.316279
0.322568
0.333769
0.344491
0.347762
0.348053
0.348691
0.349903
0.337301
0.33581
0.334384
0.333017
0.331705
0.330446
0.329235
0.328073
0.326956
0.325884
0.324858
0.323879
0.322947
0.322066
0.321238
0.320465
0.319748
0.319087
0.318484
0.317935
0.317441
0.316997
0.316602
0.316253
0.315946
0.315679
0.315449
0.315251
0.315081
0.314934
0.314802
0.314678
0.314556
0.31443
0.314295
0.314149
0.313995
0.313835
0.313674
0.313519
0.313376
0.313251
0.313149
0.313074
0.313026
0.313011
0.313032
0.313104
0.313257
0.313575
0.314282
0.315937
0.319935
0.328391
0.339276
0.345239
0.346323
0.346677
0.34696
0.346932
0.337301
0.33581
0.334384
0.333016
0.331705
0.330445
0.329234
0.32807
0.326951
0.325875
0.324843
0.323856
0.322913
0.322017
0.32117
0.320374
0.319631
0.318943
0.31831
0.317735
0.317218
0.316759
0.316357
0.316011
0.315722
0.315486
0.3153
0.315161
0.315062
0.314997
0.314956
0.314932
0.314915
0.314896
0.31487
0.314833
0.314782
0.31472
0.314649
0.314574
0.3145
0.314434
0.314379
0.31434
0.314324
0.314335
0.314387
0.314502
0.314733
0.315217
0.316307
0.318904
0.324916
0.335314
0.344415
0.345993
0.346285
0.346846
0.34766
0.348057
0.337301
0.33581
0.334384
0.333016
0.331704
0.330444
0.329233
0.328067
0.326946
0.325867
0.32483
0.323834
0.322881
0.32197
0.321104
0.320285
0.319516
0.318798
0.318134
0.317528
0.316982
0.316498
0.31608
0.315727
0.315442
0.315223
0.315068
0.314973
0.314931
0.314934
0.314972
0.315033
0.315108
0.315185
0.315256
0.315314
0.315356
0.315381
0.315389
0.315384
0.31537
0.315353
0.315337
0.31533
0.315338
0.315374
0.315455
0.315619
0.315953
0.316676
0.318349
0.322363
0.330759
0.341359
0.346281
0.346423
0.34653
0.346905
0.347771
0.348619
0.337301
0.33581
0.334384
0.333016
0.331704
0.330444
0.329231
0.328065
0.326942
0.32586
0.324819
0.323817
0.322855
0.321932
0.321051
0.320212
0.319419
0.318674
0.317981
0.317345
0.316769
0.316258
0.315816
0.315447
0.315153
0.314936
0.314793
0.31472
0.314712
0.314759
0.314849
0.31497
0.315109
0.315254
0.315394
0.315521
0.315629
0.315715
0.315779
0.315824
0.315852
0.31587
0.315882
0.315897
0.315926
0.315983
0.316097
0.316325
0.316803
0.317879
0.320441
0.326394
0.336721
0.345622
0.346491
0.346486
0.346503
0.346725
0.347287
0.348026
0.337301
0.33581
0.334384
0.333016
0.331704
0.330443
0.329231
0.328064
0.326939
0.325856
0.324811
0.323805
0.322836
0.321905
0.321012
0.320159
0.319348
0.318582
0.317866
0.317204
0.316602
0.316066
0.3156
0.315211
0.314902
0.314676
0.31453
0.314463
0.314468
0.314534
0.314651
0.314804
0.314979
0.315163
0.315343
0.31551
0.315656
0.315779
0.315877
0.315951
0.316004
0.316043
0.316073
0.316105
0.316152
0.316234
0.316391
0.316708
0.317401
0.319006
0.322876
0.331117
0.341801
0.346918
0.346573
0.346318
0.346108
0.34615
0.346522
0.347016
0.337301
0.33581
0.334383
0.333016
0.331704
0.330443
0.32923
0.328063
0.326938
0.325853
0.324807
0.323798
0.322825
0.321888
0.320988
0.320125
0.319302
0.318522
0.31779
0.31711
0.316488
0.315931
0.315446
0.315039
0.314714
0.314475
0.31432
0.314249
0.314253
0.314324
0.314449
0.314615
0.314805
0.315007
0.315206
0.315392
0.315558
0.315699
0.315813
0.315902
0.315969
0.316021
0.316063
0.316109
0.316175
0.316287
0.316502
0.31695
0.317957
0.320352
0.326001
0.336242
0.345605
0.346735
0.346578
0.346189
0.345625
0.345314
0.345595
0.346007
0.337301
0.33581
0.334383
0.333016
0.331704
0.330443
0.32923
0.328062
0.326937
0.325852
0.324804
0.323794
0.322819
0.321879
0.320974
0.320105
0.319275
0.318487
0.317744
0.317052
0.316418
0.315848
0.315349
0.314928
0.31459
0.314339
0.314176
0.314096
0.314096
0.314165
0.31429
0.314458
0.314652
0.314859
0.315065
0.315259
0.315432
0.31558
0.315702
0.315798
0.315873
0.315932
0.315985
0.316045
0.316132
0.316283
0.316579
0.317216
0.31868
0.322218
0.33002
0.34104
0.347379
0.346927
0.346574
0.346025
0.345125
0.344695
0.34488
0.345081
0.337301
0.33581
0.334383
0.333016
0.331704
0.330443
0.32923
0.328062
0.326937
0.325851
0.324803
0.323792
0.322815
0.321874
0.320967
0.320095
0.319261
0.318468
0.31772
0.317021
0.31638
0.315801
0.315294
0.314864
0.314518
0.314259
0.314088
0.314002
0.313996
0.314061
0.314183
0.31435
0.314544
0.314751
0.314958
0.315154
0.31533
0.315481
0.315606
0.315705
0.315785
0.31585
0.315912
0.315987
0.3161
0.316302
0.316709
0.31761
0.319733
0.324823
0.334718
0.344879
0.347341
0.347163
0.346666
0.345769
0.3448
0.344334
0.34429
0.344455
0.337301
0.33581
0.334383
0.333016
0.331704
0.330443
0.32923
0.328062
0.326936
0.325851
0.324803
0.323791
0.322814
0.321871
0.320963
0.32009
0.319255
0.318459
0.317708
0.317006
0.31636
0.315778
0.315266
0.314831
0.31448
0.314216
0.31404
0.31395
0.31394
0.314001
0.314121
0.314285
0.314478
0.314685
0.314891
0.315087
0.315263
0.315415
0.315541
0.315644
0.315726
0.315798
0.31587
0.315961
0.316106
0.316374
0.316935
0.318205
0.321258
0.328266
0.339465
0.347618
0.347432
0.347168
0.346556
0.345589
0.344688
0.344144
0.344001
0.344075
0.337301
0.33581
0.334383
0.333016
0.331704
0.330443
0.32923
0.328062
0.326936
0.32585
0.324802
0.32379
0.322813
0.32187
0.320962
0.320088
0.319252
0.318455
0.317702
0.316999
0.316351
0.315767
0.315252
0.314815
0.314461
0.314194
0.314016
0.313923
0.313911
0.313971
0.314089
0.314251
0.314443
0.314649
0.314855
0.31505
0.315226
0.315378
0.315506
0.31561
0.315696
0.315774
0.315857
0.315969
0.316153
0.316509
0.317277
0.319058
0.323369
0.332453
0.343596
0.348257
0.347972
0.34742
0.346382
0.345342
0.344624
0.344109
0.343887
0.343882
0.337301
0.33581
0.334383
0.333016
0.331704
0.330443
0.32923
0.328062
0.326936
0.32585
0.324802
0.32379
0.322813
0.32187
0.320961
0.320087
0.31925
0.318453
0.3177
0.316996
0.316348
0.315762
0.315247
0.314808
0.314453
0.314185
0.314005
0.313911
0.313898
0.313956
0.314073
0.314235
0.314426
0.314631
0.314837
0.315031
0.315208
0.31536
0.315489
0.315595
0.315686
0.31577
0.315866
0.316002
0.316237
0.316711
0.317756
0.320237
0.326134
0.336944
0.34677
0.348231
0.348032
0.347442
0.346405
0.345241
0.344571
0.344138
0.343878
0.343794
0.337301
0.33581
0.334383
0.333016
0.331704
0.330443
0.32923
0.328062
0.326936
0.32585
0.324802
0.32379
0.322813
0.32187
0.320961
0.320087
0.31925
0.318453
0.317699
0.316995
0.316346
0.31576
0.315244
0.314805
0.31445
0.314181
0.314001
0.313906
0.313892
0.31395
0.314066
0.314228
0.314418
0.314623
0.314829
0.315023
0.3152
0.315353
0.315483
0.315592
0.315687
0.31578
0.315891
0.316057
0.316357
0.316983
0.318398
0.321813
0.329546
0.341208
0.348872
0.348373
0.348068
0.347367
0.346305
0.345283
0.344582
0.344182
0.343929
0.343788
0.337301
0.33581
0.334383
0.333016
0.331704
0.330443
0.32923
0.328062
0.326936
0.32585
0.324802
0.32379
0.322813
0.32187
0.320961
0.320087
0.31925
0.318452
0.317699
0.316994
0.316346
0.315759
0.315243
0.314804
0.314448
0.314179
0.313999
0.313904
0.31389
0.313947
0.314064
0.314225
0.314415
0.31462
0.314825
0.31502
0.315197
0.315351
0.315483
0.315594
0.315695
0.315798
0.315927
0.31613
0.316513
0.317334
0.319238
0.323847
0.333444
0.344809
0.349251
0.348946
0.348353
0.347119
0.346104
0.345313
0.344664
0.344253
0.344009
0.343843
0.337301
0.33581
0.334383
0.333016
0.331704
0.330443
0.32923
0.328062
0.326936
0.32585
0.324802
0.32379
0.322813
0.32187
0.320961
0.320087
0.31925
0.318452
0.317699
0.316994
0.316345
0.315759
0.315243
0.314804
0.314448
0.314179
0.313998
0.313903
0.313889
0.313946
0.314063
0.314224
0.314414
0.314619
0.314824
0.31502
0.315197
0.315352
0.315485
0.3156
0.315707
0.315821
0.315972
0.31622
0.31671
0.317781
0.320318
0.32636
0.337462
0.347558
0.349219
0.349013
0.348362
0.347191
0.345998
0.345305
0.344768
0.344358
0.344108
0.343931
0.337301
0.33581
0.334383
0.333016
0.331704
0.330443
0.32923
0.328062
0.326936
0.32585
0.324802
0.32379
0.322813
0.32187
0.320961
0.320087
0.31925
0.318452
0.317699
0.316994
0.316345
0.315759
0.315243
0.314804
0.314448
0.314179
0.313998
0.313903
0.313889
0.313946
0.314062
0.314223
0.314414
0.314618
0.314824
0.31502
0.315198
0.315354
0.315489
0.315609
0.315722
0.315849
0.316025
0.31633
0.31695
0.318338
0.321679
0.329322
0.341234
0.349492
0.349209
0.348927
0.348253
0.34721
0.346033
0.345315
0.344859
0.344483
0.344223
0.344044
0.337301
0.33581
0.334383
0.333016
0.331704
0.330443
0.32923
0.328062
0.326936
0.32585
0.324802
0.32379
0.322813
0.32187
0.320961
0.320087
0.31925
0.318452
0.317699
0.316994
0.316345
0.315759
0.315243
0.314804
0.314448
0.314179
0.313998
0.313903
0.313889
0.313946
0.314062
0.314223
0.314414
0.314619
0.314824
0.31502
0.315199
0.315357
0.315494
0.315618
0.315739
0.315881
0.316088
0.316461
0.31724
0.319024
0.323346
0.332624
0.344486
0.350136
0.349754
0.34899
0.348015
0.347033
0.346094
0.345376
0.344944
0.344611
0.344351
0.344179
0.337301
0.33581
0.334383
0.333016
0.331704
0.330443
0.32923
0.328062
0.326936
0.32585
0.324802
0.32379
0.322813
0.32187
0.320961
0.320087
0.31925
0.318452
0.317699
0.316994
0.316345
0.315759
0.315243
0.314804
0.314448
0.314179
0.313998
0.313903
0.313889
0.313946
0.314062
0.314223
0.314414
0.314619
0.314825
0.315021
0.315201
0.31536
0.3155
0.315629
0.315759
0.315918
0.31616
0.316616
0.317588
0.319857
0.325321
0.336035
0.347102
0.350169
0.349916
0.349219
0.347867
0.346842
0.346111
0.345467
0.345035
0.344733
0.344489
0.344316
0.337301
0.33581
0.334383
0.333016
0.331704
0.330443
0.32923
0.328062
0.326936
0.32585
0.324802
0.32379
0.322813
0.32187
0.320961
0.320087
0.31925
0.318452
0.317699
0.316994
0.316345
0.315759
0.315243
0.314804
0.314448
0.314179
0.313998
0.313903
0.313889
0.313946
0.314062
0.314223
0.314414
0.314619
0.314825
0.315022
0.315202
0.315363
0.315507
0.315641
0.315781
0.315959
0.316243
0.316794
0.317996
0.320853
0.327579
0.339311
0.349062
0.350097
0.349876
0.349173
0.347942
0.346752
0.346096
0.345558
0.345136
0.344848
0.344622
0.344454
0.337301
0.33581
0.334383
0.333016
0.331704
0.330443
0.32923
0.328062
0.326936
0.32585
0.324802
0.32379
0.322813
0.32187
0.320961
0.320087
0.31925
0.318452
0.317699
0.316994
0.316345
0.315759
0.315243
0.314804
0.314448
0.314179
0.313998
0.313903
0.313889
0.313946
0.314062
0.314223
0.314414
0.314619
0.314826
0.315023
0.315205
0.315367
0.315514
0.315654
0.315804
0.316004
0.316336
0.316998
0.318472
0.322015
0.330059
0.342272
0.350421
0.350036
0.349755
0.34907
0.34796
0.34676
0.346088
0.345633
0.34524
0.344959
0.344754
0.344593
0.337301
0.33581
0.334383
0.333016
0.331704
0.330443
0.32923
0.328062
0.326936
0.32585
0.324802
0.32379
0.322813
0.32187
0.320961
0.320087
0.31925
0.318452
0.317699
0.316994
0.316345
0.315759
0.315243
0.314804
0.314448
0.314179
0.313998
0.313903
0.313889
0.313946
0.314062
0.314224
0.314414
0.31462
0.314827
0.315024
0.315207
0.315371
0.315522
0.315667
0.31583
0.316053
0.31644
0.317228
0.319015
0.323336
0.332668
0.344813
0.350945
0.350468
0.349646
0.348849
0.347848
0.346802
0.346109
0.345694
0.345341
0.345066
0.344872
0.344719
0.337301
0.33581
0.334383
0.333016
0.331704
0.330443
0.32923
0.328062
0.326936
0.32585
0.324802
0.32379
0.322813
0.32187
0.320961
0.320087
0.31925
0.318452
0.317699
0.316994
0.316345
0.315759
0.315243
0.314804
0.314448
0.314179
0.313998
0.313903
0.313889
0.313946
0.314062
0.314224
0.314414
0.31462
0.314827
0.315026
0.315209
0.315376
0.31553
0.315682
0.315857
0.316107
0.316554
0.317484
0.319626
0.324795
0.335272
0.346917
0.351016
0.350652
0.349909
0.348596
0.347688
0.346829
0.346154
0.345751
0.345434
0.345167
0.34498
0.344836
0.337301
0.33581
0.334383
0.333016
0.331704
0.330443
0.32923
0.328062
0.326936
0.32585
0.324802
0.32379
0.322813
0.32187
0.320961
0.320087
0.31925
0.318452
0.317699
0.316994
0.316345
0.315759
0.315243
0.314804
0.314448
0.314179
0.313998
0.313903
0.313889
0.313946
0.314063
0.314224
0.314415
0.31462
0.314828
0.315027
0.315212
0.31538
0.315538
0.315697
0.315885
0.316164
0.316676
0.317762
0.320301
0.326361
0.337747
0.3486
0.350973
0.350718
0.349992
0.348512
0.347542
0.346832
0.34621
0.345809
0.345518
0.345265
0.345082
0.344948
0.337301
0.33581
0.334383
0.333016
0.331704
0.330443
0.32923
0.328062
0.326936
0.32585
0.324802
0.32379
0.322813
0.32187
0.320961
0.320087
0.31925
0.318452
0.317699
0.316994
0.316345
0.315759
0.315243
0.314804
0.314448
0.314179
0.313998
0.313903
0.313889
0.313946
0.314063
0.314224
0.314415
0.314621
0.314829
0.315028
0.315214
0.315385
0.315546
0.315712
0.315914
0.316223
0.316806
0.31806
0.321028
0.327987
0.340002
0.349884
0.350918
0.350677
0.349926
0.348584
0.347456
0.34682
0.346268
0.34587
0.345595
0.345356
0.345179
0.345054
0.337301
0.33581
0.334383
0.333016
0.331704
0.330443
0.32923
0.328062
0.326936
0.32585
0.324802
0.32379
0.322813
0.32187
0.320961
0.320087
0.31925
0.318452
0.317699
0.316994
0.316345
0.315759
0.315243
0.314804
0.314448
0.314179
0.313998
0.313903
0.313889
0.313946
0.314063
0.314224
0.314415
0.314621
0.314829
0.31503
0.315217
0.31539
0.315555
0.315728
0.315944
0.316284
0.31694
0.318372
0.321791
0.329624
0.341991
0.35083
0.35086
0.350606
0.349871
0.348609
0.347427
0.346809
0.346322
0.345933
0.345667
0.345441
0.34527
0.345153
0.337301
0.33581
0.334383
0.333016
0.331704
0.330443
0.32923
0.328062
0.326936
0.32585
0.324802
0.32379
0.322813
0.32187
0.320961
0.320087
0.31925
0.318452
0.317699
0.316994
0.316345
0.315759
0.315243
0.314804
0.314448
0.314179
0.313998
0.313903
0.313889
0.313946
0.314063
0.314224
0.314415
0.314622
0.31483
0.315031
0.315219
0.315394
0.315563
0.315743
0.315974
0.316347
0.317076
0.318692
0.322571
0.331225
0.343706
0.351485
0.35084
0.350524
0.349807
0.348607
0.347434
0.346807
0.34637
0.345996
0.345735
0.34552
0.345355
0.345245
0.337301
0.33581
0.334383
0.333016
0.331704
0.330443
0.32923
0.328062
0.326936
0.32585
0.324802
0.32379
0.322813
0.32187
0.320961
0.320087
0.31925
0.318452
0.317699
0.316994
0.316345
0.315759
0.315243
0.314804
0.314448
0.314179
0.313998
0.313903
0.313889
0.313946
0.314063
0.314224
0.314415
0.314622
0.314831
0.315033
0.315222
0.315399
0.315571
0.315758
0.316002
0.316408
0.317212
0.319012
0.323346
0.332741
0.345148
0.351757
0.351136
0.350405
0.349665
0.348578
0.347457
0.346817
0.346413
0.346057
0.345799
0.345593
0.345434
0.34533
0.337301
0.33581
0.334383
0.333016
0.331704
0.330443
0.32923
0.328062
0.326936
0.32585
0.324802
0.32379
0.322813
0.32187
0.320961
0.320087
0.31925
0.318452
0.317699
0.316994
0.316345
0.315759
0.315243
0.314804
0.314448
0.314179
0.313998
0.313903
0.313889
0.313946
0.314063
0.314224
0.314416
0.314622
0.314832
0.315034
0.315224
0.315403
0.315579
0.315772
0.31603
0.316466
0.317343
0.319323
0.324093
0.334125
0.346338
0.351855
0.351361
0.350439
0.349506
0.348516
0.347484
0.346835
0.346451
0.346114
0.345858
0.345659
0.345505
0.345407
0.337301
0.33581
0.334383
0.333016
0.331704
0.330443
0.32923
0.328062
0.326936
0.32585
0.324802
0.32379
0.322813
0.32187
0.320961
0.320087
0.31925
0.318452
0.317699
0.316994
0.316345
0.315759
0.315243
0.314804
0.314448
0.314179
0.313998
0.313903
0.313889
0.313946
0.314063
0.314224
0.314416
0.314623
0.314832
0.315035
0.315226
0.315407
0.315585
0.315784
0.316055
0.316521
0.317464
0.319615
0.324788
0.335343
0.347302
0.351892
0.351437
0.350562
0.349385
0.348449
0.347506
0.346858
0.346485
0.346163
0.34591
0.345717
0.345568
0.345474
0.337301
0.33581
0.334383
0.333016
0.331704
0.330443
0.32923
0.328062
0.326936
0.32585
0.324802
0.32379
0.322813
0.32187
0.320961
0.320087
0.31925
0.318452
0.317699
0.316994
0.316345
0.315759
0.315243
0.314804
0.314448
0.314179
0.313998
0.313903
0.313889
0.313946
0.314063
0.314224
0.314416
0.314623
0.314833
0.315036
0.315228
0.31541
0.315591
0.315796
0.316078
0.316569
0.317573
0.319878
0.325406
0.336375
0.348064
0.351891
0.351494
0.350646
0.349302
0.348391
0.347522
0.346882
0.346514
0.346205
0.345955
0.345767
0.345621
0.345532
0.337301
0.33581
0.334383
0.333016
0.331704
0.330443
0.32923
0.328062
0.326936
0.32585
0.324802
0.32379
0.322813
0.32187
0.320961
0.320087
0.31925
0.318452
0.317699
0.316994
0.316345
0.315759
0.315243
0.314804
0.314448
0.314179
0.313998
0.313903
0.313889
0.313946
0.314063
0.314225
0.314416
0.314623
0.314833
0.315037
0.31523
0.315413
0.315596
0.315805
0.316097
0.31661
0.317665
0.320102
0.325927
0.337206
0.348643
0.351879
0.351528
0.350702
0.34925
0.348346
0.347533
0.346904
0.346538
0.34624
0.345991
0.345807
0.345665
0.345579
0.337301
0.33581
0.334383
0.333016
0.331704
0.330443
0.32923
0.328062
0.326936
0.32585
0.324802
0.32379
0.322813
0.32187
0.320961
0.320087
0.31925
0.318452
0.317699
0.316994
0.316345
0.315759
0.315243
0.314804
0.314448
0.314179
0.313998
0.313903
0.313889
0.313946
0.314063
0.314225
0.314416
0.314623
0.314833
0.315037
0.315231
0.315415
0.3156
0.315812
0.316112
0.316642
0.317738
0.320278
0.326333
0.337832
0.34906
0.351868
0.351545
0.350738
0.349218
0.348313
0.347541
0.346922
0.346557
0.346266
0.34602
0.345837
0.345698
0.345615
0.337301
0.33581
0.334383
0.333016
0.331704
0.330443
0.32923
0.328062
0.326936
0.32585
0.324802
0.32379
0.322813
0.32187
0.320961
0.320087
0.31925
0.318452
0.317699
0.316994
0.316345
0.315759
0.315243
0.314804
0.314448
0.314179
0.313998
0.313903
0.313889
0.313946
0.314063
0.314225
0.314416
0.314623
0.314834
0.315038
0.315232
0.315416
0.315603
0.315817
0.316122
0.316664
0.317788
0.3204
0.326612
0.338249
0.349328
0.351858
0.351552
0.350757
0.3492
0.348291
0.347544
0.346934
0.34657
0.346283
0.346038
0.345857
0.34572
0.345639
0.337301
0.33581
0.334383
0.333016
0.331704
0.330443
0.32923
0.328062
0.326936
0.32585
0.324802
0.32379
0.322813
0.32187
0.320961
0.320087
0.31925
0.318452
0.317699
0.316994
0.316345
0.315759
0.315243
0.314804
0.314448
0.314179
0.313998
0.313903
0.313889
0.313946
0.314063
0.314225
0.314416
0.314624
0.314834
0.315038
0.315232
0.315417
0.315604
0.31582
0.316127
0.316675
0.317814
0.320462
0.326751
0.338451
0.349454
0.351854
0.351556
0.350766
0.349194
0.348282
0.347545
0.34694
0.346576
0.346291
0.346047
0.345867
0.345731
0.34565
0.337301
0.33581
0.334383
0.333016
0.331704
0.330443
0.32923
0.328062
0.326936
0.32585
0.324802
0.32379
0.322813
0.32187
0.320961
0.320087
0.31925
0.318452
0.317699
0.316994
0.316345
0.315759
0.315243
0.314804
0.314448
0.314179
0.313998
0.313903
0.313889
0.313946
0.314063
0.314225
0.314416
0.314624
0.314834
0.315038
0.315232
0.315417
0.315604
0.31582
0.316127
0.316675
0.317814
0.320461
0.32675
0.338451
0.349455
0.351855
0.351556
0.350766
0.349194
0.348282
0.347546
0.34694
0.346576
0.346291
0.346047
0.345867
0.345731
0.34565
0.337301
0.33581
0.334383
0.333016
0.331704
0.330443
0.32923
0.328062
0.326936
0.32585
0.324802
0.32379
0.322813
0.32187
0.320961
0.320087
0.31925
0.318452
0.317699
0.316994
0.316345
0.315759
0.315243
0.314804
0.314448
0.314179
0.313998
0.313903
0.313889
0.313946
0.314063
0.314225
0.314416
0.314623
0.314834
0.315038
0.315232
0.315416
0.315603
0.315817
0.316122
0.316663
0.317788
0.3204
0.326612
0.338249
0.349329
0.351859
0.351553
0.350758
0.349201
0.348292
0.347545
0.346934
0.34657
0.346283
0.346038
0.345858
0.34572
0.345639
0.337301
0.33581
0.334383
0.333016
0.331704
0.330443
0.32923
0.328062
0.326936
0.32585
0.324802
0.32379
0.322813
0.32187
0.320961
0.320087
0.31925
0.318452
0.317699
0.316994
0.316345
0.315759
0.315243
0.314804
0.314448
0.314179
0.313998
0.313903
0.313889
0.313946
0.314063
0.314225
0.314416
0.314623
0.314833
0.315037
0.315231
0.315415
0.3156
0.315812
0.316112
0.316642
0.317738
0.320278
0.326333
0.337831
0.349061
0.351869
0.351547
0.350739
0.349219
0.348314
0.347542
0.346923
0.346558
0.346267
0.34602
0.345838
0.345699
0.345615
0.337301
0.33581
0.334383
0.333016
0.331704
0.330443
0.32923
0.328062
0.326936
0.32585
0.324802
0.32379
0.322813
0.32187
0.320961
0.320087
0.31925
0.318452
0.317699
0.316994
0.316345
0.315759
0.315243
0.314804
0.314448
0.314179
0.313998
0.313903
0.313889
0.313946
0.314063
0.314225
0.314416
0.314623
0.314833
0.315037
0.31523
0.315413
0.315596
0.315805
0.316097
0.31661
0.317665
0.320101
0.325926
0.337206
0.348644
0.351881
0.35153
0.350703
0.349251
0.348347
0.347534
0.346905
0.346539
0.346241
0.345992
0.345807
0.345666
0.34558
0.337301
0.33581
0.334383
0.333016
0.331704
0.330443
0.32923
0.328062
0.326936
0.32585
0.324802
0.32379
0.322813
0.32187
0.320961
0.320087
0.31925
0.318452
0.317699
0.316994
0.316345
0.315759
0.315243
0.314804
0.314448
0.314179
0.313998
0.313903
0.313889
0.313946
0.314063
0.314224
0.314416
0.314623
0.314833
0.315036
0.315228
0.31541
0.315591
0.315796
0.316078
0.316569
0.317573
0.319877
0.325405
0.336374
0.348065
0.351894
0.351496
0.350649
0.349304
0.348393
0.347523
0.346883
0.346515
0.346207
0.345956
0.345768
0.345623
0.345533
0.337301
0.33581
0.334383
0.333016
0.331704
0.330443
0.32923
0.328062
0.326936
0.32585
0.324802
0.32379
0.322813
0.32187
0.320961
0.320087
0.31925
0.318452
0.317699
0.316994
0.316345
0.315759
0.315243
0.314804
0.314448
0.314179
0.313998
0.313903
0.313889
0.313946
0.314063
0.314224
0.314416
0.314623
0.314832
0.315035
0.315226
0.315407
0.315585
0.315784
0.316055
0.316521
0.317464
0.319614
0.324787
0.335343
0.347303
0.351895
0.351439
0.350564
0.349387
0.348451
0.347507
0.346859
0.346486
0.346164
0.345911
0.345719
0.34557
0.345476
0.337301
0.33581
0.334383
0.333016
0.331704
0.330443
0.32923
0.328062
0.326936
0.32585
0.324802
0.32379
0.322813
0.32187
0.320961
0.320087
0.31925
0.318452
0.317699
0.316994
0.316345
0.315759
0.315243
0.314804
0.314448
0.314179
0.313998
0.313903
0.313889
0.313946
0.314063
0.314224
0.314416
0.314622
0.314832
0.315034
0.315224
0.315403
0.315579
0.315772
0.31603
0.316466
0.317342
0.319322
0.324093
0.334124
0.346338
0.351858
0.351363
0.350441
0.349508
0.348517
0.347485
0.346836
0.346452
0.346115
0.345859
0.345661
0.345507
0.345409
0.337301
0.33581
0.334383
0.333016
0.331704
0.330443
0.32923
0.328062
0.326936
0.32585
0.324802
0.32379
0.322813
0.32187
0.320961
0.320087
0.31925
0.318452
0.317699
0.316994
0.316345
0.315759
0.315243
0.314804
0.314448
0.314179
0.313998
0.313903
0.313889
0.313946
0.314063
0.314224
0.314415
0.314622
0.314831
0.315033
0.315222
0.315399
0.315571
0.315758
0.316002
0.316408
0.317212
0.319012
0.323345
0.33274
0.345148
0.351759
0.351138
0.350407
0.349667
0.34858
0.347459
0.346818
0.346414
0.346059
0.3458
0.345595
0.345436
0.345332
0.337301
0.33581
0.334383
0.333016
0.331704
0.330443
0.32923
0.328062
0.326936
0.32585
0.324802
0.32379
0.322813
0.32187
0.320961
0.320087
0.31925
0.318452
0.317699
0.316994
0.316345
0.315759
0.315243
0.314804
0.314448
0.314179
0.313998
0.313903
0.313889
0.313946
0.314063
0.314224
0.314415
0.314622
0.31483
0.315031
0.315219
0.315394
0.315563
0.315743
0.315974
0.316347
0.317076
0.318691
0.322571
0.331224
0.343706
0.351487
0.350841
0.350526
0.349809
0.348609
0.347435
0.346808
0.346371
0.345997
0.345736
0.345521
0.345357
0.345247
0.337301
0.33581
0.334383
0.333016
0.331704
0.330443
0.32923
0.328062
0.326936
0.32585
0.324802
0.32379
0.322813
0.32187
0.320961
0.320087
0.31925
0.318452
0.317699
0.316994
0.316345
0.315759
0.315243
0.314804
0.314448
0.314179
0.313998
0.313903
0.313889
0.313946
0.314063
0.314224
0.314415
0.314621
0.314829
0.31503
0.315217
0.31539
0.315555
0.315728
0.315944
0.316284
0.31694
0.318372
0.321791
0.329623
0.341991
0.350831
0.350862
0.350608
0.349872
0.34861
0.347428
0.34681
0.346323
0.345933
0.345668
0.345442
0.345271
0.345154
0.337301
0.33581
0.334383
0.333016
0.331704
0.330443
0.32923
0.328062
0.326936
0.32585
0.324802
0.32379
0.322813
0.32187
0.320961
0.320087
0.31925
0.318452
0.317699
0.316994
0.316345
0.315759
0.315243
0.314804
0.314448
0.314179
0.313998
0.313903
0.313889
0.313946
0.314063
0.314224
0.314415
0.314621
0.314829
0.315028
0.315214
0.315385
0.315546
0.315712
0.315914
0.316223
0.316806
0.31806
0.321027
0.327986
0.340002
0.349885
0.350919
0.350678
0.349927
0.348584
0.347456
0.346821
0.346269
0.34587
0.345595
0.345356
0.345179
0.345054
0.337301
0.33581
0.334383
0.333016
0.331704
0.330443
0.32923
0.328062
0.326936
0.32585
0.324802
0.32379
0.322813
0.32187
0.320961
0.320087
0.31925
0.318452
0.317699
0.316994
0.316345
0.315759
0.315243
0.314804
0.314448
0.314179
0.313998
0.313903
0.313889
0.313946
0.314063
0.314224
0.314415
0.31462
0.314828
0.315027
0.315212
0.31538
0.315538
0.315697
0.315885
0.316164
0.316676
0.317762
0.320301
0.32636
0.337747
0.3486
0.350974
0.350718
0.349992
0.348511
0.347542
0.346832
0.34621
0.345808
0.345517
0.345264
0.345082
0.344947
0.337301
0.33581
0.334383
0.333016
0.331704
0.330443
0.32923
0.328062
0.326936
0.32585
0.324802
0.32379
0.322813
0.32187
0.320961
0.320087
0.31925
0.318452
0.317699
0.316994
0.316345
0.315759
0.315243
0.314804
0.314448
0.314179
0.313998
0.313903
0.313889
0.313946
0.314062
0.314224
0.314414
0.31462
0.314827
0.315026
0.315209
0.315376
0.31553
0.315682
0.315857
0.316107
0.316554
0.317484
0.319626
0.324795
0.335272
0.346916
0.351015
0.350652
0.349908
0.348595
0.347687
0.346828
0.346153
0.34575
0.345432
0.345166
0.344979
0.344834
0.337301
0.33581
0.334383
0.333016
0.331704
0.330443
0.32923
0.328062
0.326936
0.32585
0.324802
0.32379
0.322813
0.32187
0.320961
0.320087
0.31925
0.318452
0.317699
0.316994
0.316345
0.315759
0.315243
0.314804
0.314448
0.314179
0.313998
0.313903
0.313889
0.313946
0.314062
0.314224
0.314414
0.31462
0.314827
0.315024
0.315207
0.315371
0.315522
0.315667
0.31583
0.316053
0.31644
0.317228
0.319015
0.323335
0.332667
0.344812
0.350943
0.350466
0.349645
0.348847
0.347846
0.3468
0.346107
0.345693
0.345339
0.345065
0.34487
0.344717
0.337301
0.33581
0.334383
0.333016
0.331704
0.330443
0.32923
0.328062
0.326936
0.32585
0.324802
0.32379
0.322813
0.32187
0.320961
0.320087
0.31925
0.318452
0.317699
0.316994
0.316345
0.315759
0.315243
0.314804
0.314448
0.314179
0.313998
0.313903
0.313889
0.313946
0.314062
0.314223
0.314414
0.314619
0.314826
0.315023
0.315205
0.315367
0.315514
0.315654
0.315804
0.316004
0.316336
0.316998
0.318472
0.322015
0.330059
0.342271
0.350419
0.350034
0.349753
0.349067
0.347957
0.346758
0.346086
0.345631
0.345238
0.344957
0.344751
0.34459
0.337301
0.33581
0.334383
0.333016
0.331704
0.330443
0.32923
0.328062
0.326936
0.32585
0.324802
0.32379
0.322813
0.32187
0.320961
0.320087
0.31925
0.318452
0.317699
0.316994
0.316345
0.315759
0.315243
0.314804
0.314448
0.314179
0.313998
0.313903
0.313889
0.313946
0.314062
0.314223
0.314414
0.314619
0.314825
0.315022
0.315202
0.315363
0.315507
0.315641
0.315781
0.315959
0.316243
0.316794
0.317996
0.320853
0.327579
0.33931
0.34906
0.350094
0.349873
0.34917
0.34794
0.34675
0.346093
0.345556
0.345133
0.344846
0.344619
0.344451
0.337301
0.33581
0.334383
0.333016
0.331704
0.330443
0.32923
0.328062
0.326936
0.32585
0.324802
0.32379
0.322813
0.32187
0.320961
0.320087
0.31925
0.318452
0.317699
0.316994
0.316345
0.315759
0.315243
0.314804
0.314448
0.314179
0.313998
0.313903
0.313889
0.313946
0.314062
0.314223
0.314414
0.314619
0.314825
0.315021
0.315201
0.31536
0.3155
0.315629
0.315759
0.315918
0.31616
0.316616
0.317588
0.319857
0.325321
0.336034
0.3471
0.350166
0.349912
0.349216
0.347864
0.346839
0.346108
0.345465
0.345032
0.34473
0.344487
0.344314
0.337301
0.33581
0.334383
0.333016
0.331704
0.330443
0.32923
0.328062
0.326936
0.32585
0.324802
0.32379
0.322813
0.32187
0.320961
0.320087
0.31925
0.318452
0.317699
0.316994
0.316345
0.315759
0.315243
0.314804
0.314448
0.314179
0.313998
0.313903
0.313889
0.313946
0.314062
0.314223
0.314414
0.314619
0.314824
0.31502
0.315199
0.315357
0.315494
0.315618
0.31574
0.315881
0.316088
0.316461
0.31724
0.319024
0.323346
0.332624
0.344484
0.350132
0.34975
0.348986
0.348011
0.34703
0.346091
0.345373
0.344942
0.344608
0.34435
0.344177
0.337301
0.33581
0.334383
0.333016
0.331704
0.330443
0.32923
0.328062
0.326936
0.32585
0.324802
0.32379
0.322813
0.32187
0.320961
0.320087
0.31925
0.318452
0.317699
0.316994
0.316345
0.315759
0.315243
0.314804
0.314448
0.314179
0.313998
0.313903
0.313889
0.313946
0.314062
0.314223
0.314414
0.314618
0.314824
0.31502
0.315198
0.315354
0.315489
0.315608
0.315722
0.315849
0.316025
0.31633
0.31695
0.318338
0.321679
0.329322
0.341233
0.349488
0.349205
0.348923
0.348249
0.347207
0.34603
0.345313
0.344857
0.344481
0.344221
0.344043
0.337301
0.33581
0.334383
0.333016
0.331704
0.330443
0.32923
0.328062
0.326936
0.32585
0.324802
0.32379
0.322813
0.32187
0.320961
0.320087
0.31925
0.318452
0.317699
0.316994
0.316345
0.315759
0.315243
0.314804
0.314448
0.314179
0.313998
0.313903
0.313889
0.313946
0.314063
0.314224
0.314414
0.314619
0.314824
0.315019
0.315197
0.315352
0.315485
0.3156
0.315707
0.315821
0.315972
0.31622
0.31671
0.317781
0.320318
0.32636
0.337461
0.347555
0.349215
0.349009
0.348359
0.347188
0.345996
0.345303
0.344766
0.344356
0.344107
0.34393
0.337301
0.33581
0.334383
0.333016
0.331704
0.330443
0.32923
0.328062
0.326936
0.32585
0.324802
0.32379
0.322813
0.32187
0.320961