/*--------------------------------*- C++ -*----------------------------------*\
  =========                 |
  \\      /  F ield         | OpenFOAM: The Open Source CFD Toolbox
   \\    /   O peration     | Website:  https://openfoam.org
    \\  /    A nd           | Version:  9
     \\/     M anipulation  |
\*---------------------------------------------------------------------------*/
FoamFile
{
    format      ascii;
    class       volScalarField;
    location    "0.005";
    object      p;
}
// * * * * * * * * * * * * * * * * * * * * * * * * * * * * * * * * * * * * * //

dimensions      [1 -1 -2 0 0 0 0];

internalField   nonuniform List<scalar> 
36400
(
2
2
2
2
2
2
2
2
2
2
2
2
2
2
2
2
2
2
2
2
2
2
2
2
2
2
2
2
2
2
2
2
2
2
2
2
2
2
2.00001
2.00001
2.00002
2.00004
2.00008
2.00016
2.00032
2.00063
2.00123
2.00236
2.00445
2.00831
2.01554
2.0298
2.05835
2.11555
2.22933
2.41735
2.63196
2.6604
2.65514
2.64496
2
2
2
2
2
2
2
2
2
2
2
2
2
2
2
2
2
2
2
2
2
2
2
2
2
2
2
2
2
2
2
2
2
2
2
2
2
2
2.00001
2.00002
2.00003
2.00006
2.00011
2.00022
2.00043
2.00083
2.0016
2.00303
2.00568
2.01056
2.02
2.0389
2.07678
2.15276
2.29416
2.49712
2.60992
2.61488
2.6142
2.61466
2
2
2
2
2
2
2
2
2
2
2
2
2
2
2
2
2
2
2
2
2
2
2
2
2
2
2
2
2
2
2
2
2
2
2
2
2
2.00001
2.00001
2.00002
2.00004
2.00008
2.00015
2.0003
2.00058
2.00111
2.00212
2.00399
2.00741
2.01382
2.02643
2.05168
2.10222
2.20243
2.35831
2.51845
2.56068
2.57042
2.58343
2.59445
2
2
2
2
2
2
2
2
2
2
2
2
2
2
2
2
2
2
2
2
2
2
2
2
2
2
2
2
2
2
2
2
2
2
2
2
2
2.00001
2.00001
2.00003
2.00005
2.00011
2.00021
2.00041
2.00079
2.00152
2.00286
2.00533
2.00988
2.01855
2.03592
2.07069
2.14024
2.26615
2.43976
2.50991
2.51782
2.53091
2.54763
2.56891
2
2
2
2
2
2
2
2
2
2
2
2
2
2
2
2
2
2
2
2
2
2
2
2
2
2
2
2
2
2
2
2
2
2
2
2
2.00001
2.00001
2.00002
2.00004
2.00008
2.00015
2.00029
2.00057
2.00109
2.00206
2.00386
2.00714
2.01326
2.02528
2.04935
2.09752
2.1927
2.33711
2.47308
2.48838
2.49145
2.49753
2.50936
2.53311
2
2
2
2
2
2
2
2
2
2
2
2
2
2
2
2
2
2
2
2
2
2
2
2
2
2
2
2
2
2
2
2
2
2
2
2
2.00001
2.00002
2.00003
2.00005
2.00011
2.00021
2.0004
2.00078
2.00148
2.00278
2.00516
2.00954
2.01788
2.03457
2.06798
2.13479
2.25584
2.4197
2.46788
2.46749
2.46793
2.46954
2.47419
2.4887
2
2
2
2
2
2
2
2
2
2
2
2
2
2
2
2
2
2
2
2
2
2
2
2
2
2
2
2
2
2
2
2
2
2
2
2.00001
2.00001
2.00002
2.00004
2.00008
2.00015
2.00029
2.00055
2.00106
2.002
2.00371
2.00685
2.01271
2.02421
2.04724
2.09332
2.18479
2.32481
2.45972
2.45672
2.45211
2.44509
2.43827
2.43982
2.44751
2
2
2
2
2
2
2
2
2
2
2
2
2
2
2
2
2
2
2
2
2
2
2
2
2
2
2
2
2
2
2
2
2
2
2
2.00001
2.00001
2.00003
2.00005
2.0001
2.0002
2.00039
2.00075
2.00142
2.00265
2.00489
2.00902
2.0169
2.03265
2.06419
2.12727
2.24485
2.40394
2.45545
2.4518
2.4426
2.42437
2.40608
2.40694
2.41305
2
2
2
2
2
2
2
2
2
2
2
2
2
2
2
2
2
2
2
2
2
2
2
2
2
2
2
2
2
2
2
2
2
2
2.00001
2.00001
2.00002
2.00004
2.00007
2.00014
2.00027
2.00052
2.00099
2.00187
2.00347
2.00638
2.01182
2.02249
2.04385
2.0866
2.17194
2.30965
2.45886
2.45452
2.44707
2.43297
2.40317
2.3828
2.38159
2.38258
2
2
2
2
2
2
2
2
2
2
2
2
2
2
2
2
2
2
2
2
2
2
2
2
2
2
2
2
2
2
2
2
2
2
2.00001
2.00001
2.00003
2.00005
2.0001
2.00019
2.00036
2.00069
2.0013
2.00243
2.00448
2.00825
2.01541
2.02973
2.0584
2.11575
2.22672
2.37971
2.46185
2.45743
2.44518
2.41876
2.38549
2.36684
2.3594
2.36016
2
2
2
2
2
2
2
2
2
2
2
2
2
2
2
2
2
2
2
2
2
2
2
2
2
2
2
2
2
2
2
2
2
2.00001
2.00001
2.00002
2.00003
2.00007
2.00013
2.00024
2.00047
2.0009
2.00168
2.00312
2.00573
2.01058
2.02007
2.03907
2.07712
2.15321
2.28649
2.4502
2.45913
2.45275
2.43698
2.40634
2.37317
2.35431
2.34566
2.34349
2
2
2
2
2
2
2
2
2
2
2
2
2
2
2
2
2
2
2
2
2
2
2
2
2
2
2
2
2
2
2
2
2
2.00001
2.00001
2.00002
2.00004
2.00008
2.00016
2.00032
2.00061
2.00115
2.00214
2.00395
2.00725
2.0135
2.02596
2.0509
2.10082
2.19993
2.34927
2.47322
2.46795
2.45366
2.42528
2.39051
2.36375
2.34578
2.33584
2.33178
2
2
2
2
2
2
2
2
2
2
2
2
2
2
2
2
2
2
2
2
2
2
2
2
2
2
2
2
2
2
2
2
2.00001
2.00001
2.00002
2.00003
2.00006
2.00011
2.00021
2.00041
2.00077
2.00145
2.00269
2.00494
2.0091
2.01718
2.03333
2.06568
2.13042
2.25316
2.41411
2.47111
2.46527
2.44987
2.41693
2.37826
2.3551
2.33954
2.32872
2.32279
2
2
2
2
2
2
2
2
2
2
2
2
2
2
2
2
2
2
2
2
2
2
2
2
2
2
2
2
2
2
2
2
2.00001
2.00001
2.00002
2.00004
2.00007
2.00014
2.00027
2.00051
2.00097
2.00181
2.00334
2.00613
2.01136
2.02171
2.04243
2.08394
2.16696
2.30888
2.47116
2.46844
2.46091
2.44207
2.40669
2.37075
2.34812
2.33425
2.32354
2.31613
2
2
2
2
2
2
2
2
2
2
2
2
2
2
2
2
2
2
2
2
2
2
2
2
2
2
2
2
2
2
2
2
2.00001
2.00001
2.00003
2.00005
2.00009
2.00017
2.00034
2.00064
2.0012
2.00223
2.0041
2.00753
2.01408
2.0272
2.05348
2.10612
2.21037
2.36595
2.48567
2.47919
2.46308
2.42803
2.39344
2.36469
2.34346
2.32987
2.3196
2.31139
2
2
2
2
2
2
2
2
2
2
2
2
2
2
2
2
2
2
2
2
2
2
2
2
2
2
2
2
2
2
2
2.00001
2.00001
2.00002
2.00003
2.00006
2.00011
2.00022
2.00042
2.00079
2.00147
2.00272
2.00498
2.00918
2.01739
2.03383
2.06674
2.13264
2.25813
2.42216
2.48379
2.47743
2.45968
2.42169
2.38254
2.35852
2.34023
2.32668
2.31654
2.30792
2
2
2
2
2
2
2
2
2
2
2
2
2
2
2
2
2
2
2
2
2
2
2
2
2
2
2
2
2
2
2
2.00001
2.00001
2.00002
2.00004
2.00007
2.00014
2.00027
2.00051
2.00096
2.00178
2.00327
2.00599
2.01111
2.02128
2.04164
2.08244
2.16405
2.30732
2.47283
2.47866
2.47096
2.45229
2.41584
2.37591
2.35301
2.33744
2.32453
2.3142
2.30544
2
2
2
2
2
2
2
2
2
2
2
2
2
2
2
2
2
2
2
2
2
2
2
2
2
2
2
2
2
2
2.00001
2.00001
2.00001
2.00003
2.00005
2.00009
2.00017
2.00032
2.00061
2.00115
2.00213
2.00389
2.00714
2.01336
2.0258
2.05073
2.10069
2.20021
2.35633
2.49502
2.48871
2.46778
2.44044
2.4053
2.37158
2.34907
2.33486
2.323
2.31259
2.30395
2
2
2
2
2
2
2
2
2
2
2
2
2
2
2
2
2
2
2
2
2
2
2
2
2
2
2
2
2
2
2.00001
2.00001
2.00002
2.00003
2.00006
2.00011
2.0002
2.00039
2.00073
2.00136
2.00251
2.00459
2.00844
2.01597
2.03102
2.06118
2.12157
2.23961
2.40456
2.49763
2.4906
2.47092
2.42917
2.39441
2.36739
2.34659
2.33273
2.3218
2.3116
2.30297
2
2
2
2
2
2
2
2
2
2
2
2
2
2
2
2
2
2
2
2
2
2
2
2
2
2
2
2
2
2
2.00001
2.00001
2.00002
2.00004
2.00007
2.00013
2.00024
2.00046
2.00086
2.00159
2.00293
2.00535
2.0099
2.0189
2.03691
2.073
2.14526
2.28018
2.44872
2.49414
2.4869
2.4669
2.42508
2.38604
2.36295
2.34484
2.33121
2.32082
2.31095
2.3023
2
2
2
2
2
2
2
2
2
2
2
2
2
2
2
2
2
2
2
2
2
2
2
2
2
2
2
2
2
2
2.00001
2.00001
2.00002
2.00004
2.00008
2.00015
2.00028
2.00053
2.001
2.00185
2.00338
2.00619
2.01152
2.02216
2.04347
2.08617
2.17159
2.32028
2.48587
2.48868
2.48068
2.46092
2.42086
2.38079
2.35888
2.34328
2.33022
2.32005
2.31073
2.30213
2
2
2
2
2
2
2
2
2
2
2
2
2
2
2
2
2
2
2
2
2
2
2
2
2
2
2
2
2
2.00001
2.00001
2.00001
2.00003
2.00005
2.00009
2.00017
2.00033
2.00061
2.00115
2.00212
2.00387
2.00709
2.0133
2.02573
2.05062
2.10054
2.20014
2.35893
2.50415
2.49666
2.47418
2.45123
2.41392
2.37746
2.35571
2.34176
2.32957
2.31954
2.31054
2.30206
2
2
2
2
2
2
2
2
2
2
2
2
2
2
2
2
2
2
2
2
2
2
2
2
2
2
2
2
2
2.00001
2.00001
2.00002
2.00003
2.00005
2.0001
2.0002
2.00037
2.0007
2.0013
2.0024
2.00438
2.00805
2.01523
2.02959
2.05835
2.11599
2.22984
2.39592
2.50864
2.50005
2.47811
2.43957
2.40597
2.37475
2.35351
2.34037
2.3291
2.31919
2.31044
2.30208
2
2
2
2
2
2
2
2
2
2
2
2
2
2
2
2
2
2
2
2
2
2
2
2
2
2
2
2
2
2.00001
2.00001
2.00002
2.00003
2.00006
2.00012
2.00022
2.00042
2.00079
2.00147
2.00269
2.00491
2.00906
2.01726
2.03366
2.06653
2.1324
2.25946
2.43011
2.50804
2.50014
2.47875
2.43204
2.39844
2.37206
2.35204
2.33921
2.32873
2.31907
2.31043
2.3023
2
2
2
2
2
2
2
2
2
2
2
2
2
2
2
2
2
2
2
2
2
2
2
2
2
2
2
2
2
2.00001
2.00001
2.00002
2.00004
2.00007
2.00013
2.00025
2.00047
2.00088
2.00163
2.00299
2.00546
2.01011
2.01937
2.0379
2.07505
2.14943
2.28806
2.45982
2.50542
2.49733
2.47533
2.4297
2.3924
2.36932
2.35101
2.33835
2.32844
2.31908
2.31057
2.30262
2
2
2
2
2
2
2
2
2
2
2
2
2
2
2
2
2
2
2
2
2
2
2
2
2
2
2
2
2.00001
2.00001
2.00001
2.00002
2.00004
2.00008
2.00015
2.00028
2.00052
2.00098
2.0018
2.00328
2.006
2.01117
2.02151
2.04221
2.08371
2.16676
2.31491
2.48453
2.50162
2.49356
2.4719
2.42701
2.38808
2.36674
2.35021
2.33776
2.32821
2.31916
2.3108
2.30302
2
2
2
2
2
2
2
2
2
2
2
2
2
2
2
2
2
2
2
2
2
2
2
2
2
2
2
2
2.00001
2.00001
2.00001
2.00003
2.00005
2.00008
2.00016
2.0003
2.00057
2.00107
2.00196
2.00358
2.00655
2.01224
2.02365
2.04649
2.09232
2.18397
2.33962
2.50375
2.49836
2.48943
2.46805
2.42415
2.38512
2.36451
2.34952
2.33738
2.32808
2.31928
2.31108
2.30347
2
2
2
2
2
2
2
2
2
2
2
2
2
2
2
2
2
2
2
2
2
2
2
2
2
2
2
2
2.00001
2.00001
2.00002
2.00003
2.00005
2.00009
2.00017
2.00033
2.00062
2.00115
2.00212
2.00386
2.00707
2.01329
2.02575
2.05069
2.10066
2.20058
2.36192
2.51335
2.50401
2.48408
2.46198
2.42096
2.38308
2.36271
2.3489
2.33716
2.328
2.31945
2.31138
2.30392
2
2
2
2
2
2
2
2
2
2
2
2
2
2
2
2
2
2
2
2
2
2
2
2
2
2
2
2
2.00001
2.00001
2.00002
2.00003
2.00005
2.0001
2.00019
2.00035
2.00066
2.00123
2.00226
2.00412
2.00757
2.01428
2.02773
2.05465
2.10863
2.21607
2.38173
2.51774
2.50897
2.48273
2.45533
2.41724
2.3816
2.36135
2.34837
2.33704
2.32797
2.31964
2.31169
2.30435
2
2
2
2
2
2
2
2
2
2
2
2
2
2
2
2
2
2
2
2
2
2
2
2
2
2
2
2
2.00001
2.00001
2.00002
2.00003
2.00006
2.00011
2.0002
2.00038
2.00071
2.00131
2.00239
2.00436
2.00802
2.01519
2.02954
2.05831
2.11596
2.23
2.39885
2.51997
2.51015
2.48439
2.44964
2.41368
2.38045
2.36035
2.34792
2.33697
2.32798
2.31981
2.31198
2.30475
2
2
2
2
2
2
2
2
2
2
2
2
2
2
2
2
2
2
2
2
2
2
2
2
2
2
2
2
2.00001
2.00001
2.00002
2.00003
2.00006
2.00011
2.00021
2.0004
2.00074
2.00137
2.00251
2.00457
2.00842
2.01599
2.03115
2.06154
2.12244
2.24205
2.41315
2.52069
2.51092
2.48554
2.44521
2.4106
2.37953
2.35965
2.34756
2.33695
2.32801
2.31997
2.31224
2.30511
2
2
2
2
2
2
2
2
2
2
2
2
2
2
2
2
2
2
2
2
2
2
2
2
2
2
2
2
2.00001
2.00001
2.00002
2.00003
2.00006
2.00012
2.00022
2.00041
2.00077
2.00143
2.00261
2.00475
2.00876
2.01667
2.03251
2.06426
2.12788
2.25195
2.42455
2.52072
2.51123
2.48625
2.44195
2.40813
2.37878
2.35917
2.34729
2.33695
2.32806
2.32012
2.31246
2.3054
2
2
2
2
2
2
2
2
2
2
2
2
2
2
2
2
2
2
2
2
2
2
2
2
2
2
2
2
2.00001
2.00001
2.00002
2.00004
2.00006
2.00012
2.00023
2.00043
2.0008
2.00147
2.00268
2.00488
2.00902
2.01719
2.03356
2.06637
2.13212
2.25951
2.43303
2.5205
2.51119
2.48667
2.43967
2.40629
2.37822
2.35885
2.34709
2.33695
2.32811
2.32023
2.31264
2.30564
2
2
2
2
2
2
2
2
2
2
2
2
2
2
2
2
2
2
2
2
2
2
2
2
2
2
2
2.00001
2.00001
2.00001
2.00002
2.00004
2.00007
2.00012
2.00023
2.00043
2.00081
2.0015
2.00273
2.00498
2.0092
2.01755
2.03429
2.06782
2.13503
2.26463
2.43868
2.52026
2.51107
2.4869
2.43826
2.40507
2.37782
2.35865
2.34697
2.33696
2.32814
2.3203
2.31275
2.30579
2
2
2
2
2
2
2
2
2
2
2
2
2
2
2
2
2
2
2
2
2
2
2
2
2
2
2
2.00001
2.00001
2.00001
2.00002
2.00004
2.00007
2.00012
2.00023
2.00044
2.00082
2.00151
2.00276
2.00502
2.00929
2.01773
2.03465
2.06855
2.13647
2.26713
2.44135
2.52017
2.51101
2.48698
2.43765
2.40451
2.37762
2.35856
2.3469
2.33695
2.32815
2.32034
2.3128
2.30585
2
2
2
2
2
2
2
2
2
2
2
2
2
2
2
2
2
2
2
2
2
2
2
2
2
2
2
2.00001
2.00001
2.00001
2.00002
2.00004
2.00007
2.00012
2.00023
2.00044
2.00082
2.00151
2.00276
2.00502
2.00929
2.01773
2.03465
2.06855
2.13647
2.26713
2.44135
2.52017
2.51102
2.48698
2.43765
2.40451
2.37762
2.35855
2.3469
2.33695
2.32815
2.32033
2.3128
2.30585
2
2
2
2
2
2
2
2
2
2
2
2
2
2
2
2
2
2
2
2
2
2
2
2
2
2
2
2.00001
2.00001
2.00001
2.00002
2.00004
2.00007
2.00012
2.00023
2.00043
2.00081
2.0015
2.00273
2.00498
2.0092
2.01755
2.03428
2.06782
2.13502
2.26463
2.43868
2.52027
2.51108
2.4869
2.43826
2.40506
2.37781
2.35865
2.34696
2.33695
2.32814
2.3203
2.31275
2.30578
2
2
2
2
2
2
2
2
2
2
2
2
2
2
2
2
2
2
2
2
2
2
2
2
2
2
2
2
2.00001
2.00001
2.00002
2.00004
2.00006
2.00012
2.00023
2.00043
2.00079
2.00147
2.00268
2.00488
2.00902
2.01719
2.03356
2.06637
2.13211
2.2595
2.43303
2.52051
2.5112
2.48668
2.43968
2.40628
2.37821
2.35884
2.34708
2.33694
2.3281
2.32022
2.31263
2.30563
2
2
2
2
2
2
2
2
2
2
2
2
2
2
2
2
2
2
2
2
2
2
2
2
2
2
2
2
2.00001
2.00001
2.00002
2.00003
2.00006
2.00012
2.00022
2.00041
2.00077
2.00143
2.00261
2.00475
2.00876
2.01667
2.03251
2.06425
2.12788
2.25194
2.42455
2.52075
2.51125
2.48626
2.44195
2.40812
2.37877
2.35915
2.34727
2.33693
2.32805
2.32011
2.31245
2.30539
2
2
2
2
2
2
2
2
2
2
2
2
2
2
2
2
2
2
2
2
2
2
2
2
2
2
2
2
2.00001
2.00001
2.00002
2.00003
2.00006
2.00011
2.00021
2.0004
2.00074
2.00137
2.00251
2.00457
2.00842
2.01599
2.03115
2.06154
2.12243
2.24204
2.41315
2.52072
2.51094
2.48555
2.44522
2.41059
2.37951
2.35963
2.34754
2.33693
2.328
2.31996
2.31223
2.3051
2
2
2
2
2
2
2
2
2
2
2
2
2
2
2
2
2
2
2
2
2
2
2
2
2
2
2
2
2.00001
2.00001
2.00002
2.00003
2.00006
2.00011
2.0002
2.00038
2.00071
2.00131
2.00239
2.00436
2.00802
2.01519
2.02954
2.0583
2.11595
2.22999
2.39885
2.51999
2.51017
2.4844
2.44965
2.41367
2.38043
2.36033
2.34789
2.33695
2.32797
2.3198
2.31196
2.30474
2
2
2
2
2
2
2
2
2
2
2
2
2
2
2
2
2
2
2
2
2
2
2
2
2
2
2
2
2.00001
2.00001
2.00002
2.00003
2.00005
2.0001
2.00019
2.00035
2.00066
2.00123
2.00226
2.00412
2.00757
2.01428
2.02773
2.05465
2.10862
2.21605
2.38172
2.51776
2.50899
2.48274
2.45534
2.41723
2.38158
2.36133
2.34835
2.33702
2.32795
2.31962
2.31167
2.30434
2
2
2
2
2
2
2
2
2
2
2
2
2
2
2
2
2
2
2
2
2
2
2
2
2
2
2
2
2.00001
2.00001
2.00002
2.00003
2.00005
2.00009
2.00017
2.00033
2.00062
2.00115
2.00212
2.00386
2.00707
2.01329
2.02574
2.05068
2.10066
2.20057
2.36191
2.51337
2.50403
2.4841
2.46199
2.42095
2.38306
2.36269
2.34888
2.33714
2.32798
2.31943
2.31136
2.30391
2
2
2
2
2
2
2
2
2
2
2
2
2
2
2
2
2
2
2
2
2
2
2
2
2
2
2
2
2.00001
2.00001
2.00001
2.00003
2.00005
2.00008
2.00016
2.0003
2.00057
2.00107
2.00196
2.00358
2.00655
2.01224
2.02364
2.04649
2.09232
2.18396
2.33961
2.50376
2.49838
2.48944
2.46806
2.42414
2.3851
2.36449
2.3495
2.33737
2.32806
2.31926
2.31106
2.30346
2
2
2
2
2
2
2
2
2
2
2
2
2
2
2
2
2
2
2
2
2
2
2
2
2
2
2
2
2.00001
2.00001
2.00001
2.00002
2.00004
2.00008
2.00015
2.00028
2.00052
2.00098
2.0018
2.00328
2.006
2.01117
2.02151
2.04221
2.08371
2.16675
2.3149
2.48453
2.50163
2.49357
2.47191
2.427
2.38807
2.36673
2.35019
2.33774
2.3282
2.31914
2.31079
2.30301
2
2
2
2
2
2
2
2
2
2
2
2
2
2
2
2
2
2
2
2
2
2
2
2
2
2
2
2
2
2.00001
2.00001
2.00002
2.00004
2.00007
2.00013
2.00025
2.00047
2.00088
2.00163
2.00299
2.00546
2.01011
2.01937
2.0379
2.07505
2.14942
2.28806
2.45981
2.50543
2.49734
2.47533
2.42969
2.39239
2.36931
2.351
2.33834
2.32842
2.31907
2.31056
2.30261
2
2
2
2
2
2
2
2
2
2
2
2
2
2
2
2
2
2
2
2
2
2
2
2
2
2
2
2
2
2.00001
2.00001
2.00002
2.00003
2.00006
2.00012
2.00022
2.00042
2.00079
2.00147
2.00269
2.00491
2.00906
2.01726
2.03366
2.06653
2.13239
2.25945
2.4301
2.50804
2.50014
2.47875
2.43203
2.39844
2.37205
2.35203
2.3392
2.32872
2.31906
2.31043
2.30229
2
2
2
2
2
2
2
2
2
2
2
2
2
2
2
2
2
2
2
2
2
2
2
2
2
2
2
2
2
2.00001
2.00001
2.00002
2.00003
2.00005
2.0001
2.0002
2.00037
2.0007
2.0013
2.0024
2.00438
2.00805
2.01523
2.02959
2.05835
2.11599
2.22983
2.39591
2.50863
2.50005
2.47811
2.43956
2.40596
2.37474
2.3535
2.34036
2.32909
2.31919
2.31043
2.30208
2
2
2
2
2
2
2
2
2
2
2
2
2
2
2
2
2
2
2
2
2
2
2
2
2
2
2
2
2
2.00001
2.00001
2.00001
2.00003
2.00005
2.00009
2.00017
2.00033
2.00061
2.00115
2.00212
2.00387
2.00709
2.0133
2.02573
2.05062
2.10054
2.20014
2.35893
2.50413
2.49665
2.47416
2.45121
2.41392
2.37745
2.35571
2.34175
2.32956
2.31954
2.31054
2.30206
2
2
2
2
2
2
2
2
2
2
2
2
2
2
2
2
2
2
2
2
2
2
2
2
2
2
2
2
2
2
2.00001
2.00001
2.00002
2.00004
2.00008
2.00015
2.00028
2.00053
2.001
2.00185
2.00338
2.00619
2.01152
2.02216
2.04347
2.08617
2.17159
2.32027
2.48585
2.48866
2.48066
2.4609
2.42085
2.38078
2.35887
2.34327
2.33022
2.32005
2.31073
2.30213
2
2
2
2
2
2
2
2
2
2
2
2
2
2
2
2
2
2
2
2
2
2
2
2
2
2
2
2
2
2
2.00001
2.00001
2.00002
2.00004
2.00007
2.00013
2.00024
2.00046
2.00086
2.0016
2.00293
2.00535
2.0099
2.0189
2.03691
2.073
2.14526
2.28018
2.44871
2.49411
2.48687
2.46688
2.42507
2.38604
2.36295
2.34484
2.33121
2.32082
2.31096
2.30231
2
2
2
2
2
2
2
2
2
2
2
2
2
2
2
2
2
2
2
2
2
2
2
2
2
2
2
2
2
2
2.00001
2.00001
2.00002
2.00003
2.00006
2.00011
2.0002
2.00039
2.00073
2.00136
2.00251
2.00459
2.00845
2.01597
2.03102
2.06118
2.12158
2.23961
2.40455
2.4976
2.49056
2.47089
2.42915
2.3944
2.36739
2.34659
2.33274
2.3218
2.31162
2.30298
2
2
2
2
2
2
2
2
2
2
2
2
2
2
2
2
2
2
2
2
2
2
2
2
2
2
2
2
2
2
2
2.00001
2.00001
2.00002
2.00005
2.00009
2.00017
2.00032
2.00061
2.00115
2.00213
2.0039
2.00714
2.01336
2.0258
2.05073
2.10069
2.20022
2.35632
2.49498
2.48868
2.46775
2.44041
2.40529
2.37158
2.34908
2.33487
2.32301
2.31261
2.30396
2
2
2
2
2
2
2
2
2
2
2
2
2
2
2
2
2
2
2
2
2
2
2
2
2
2
2
2
2
2
2
2.00001
2.00001
2.00002
2.00004
2.00007
2.00014
2.00027
2.00051
2.00096
2.00178
2.00327
2.00599
2.01111
2.02128
2.04164
2.08244
2.16405
2.30732
2.4728
2.47861
2.47092
2.45226
2.41583
2.37591
2.35301
2.33745
2.32454
2.31422
2.30546
2
2
2
2
2
2
2
2
2
2
2
2
2
2
2
2
2
2
2
2
2
2
2
2
2
2
2
2
2
2
2
2.00001
2.00001
2.00002
2.00003
2.00006
2.00011
2.00022
2.00042
2.00079
2.00147
2.00272
2.00498
2.00918
2.01739
2.03383
2.06674
2.13264
2.25813
2.42214
2.48374
2.47739
2.45965
2.42168
2.38254
2.35853
2.34024
2.3267
2.31656
2.30794
2
2
2
2
2
2
2
2
2
2
2
2
2
2
2
2
2
2
2
2
2
2
2
2
2
2
2
2
2
2
2
2
2.00001
2.00001
2.00003
2.00005
2.00009
2.00017
2.00034
2.00064
2.0012
2.00223
2.0041
2.00753
2.01408
2.0272
2.05348
2.10612
2.21037
2.36593
2.48563
2.47915
2.46305
2.42801
2.39344
2.3647
2.34347
2.32989
2.31962
2.31141
2
2
2
2
2
2
2
2
2
2
2
2
2
2
2
2
2
2
2
2
2
2
2
2
2
2
2
2
2
2
2
2
2.00001
2.00001
2.00002
2.00004
2.00007
2.00014
2.00027
2.00051
2.00097
2.00181
2.00334
2.00613
2.01136
2.02171
2.04243
2.08394
2.16695
2.30887
2.47112
2.4684
2.46088
2.44205
2.40669
2.37076
2.34813
2.33427
2.32356
2.31615
2
2
2
2
2
2
2
2
2
2
2
2
2
2
2
2
2
2
2
2
2
2
2
2
2
2
2
2
2
2
2
2
2.00001
2.00001
2.00002
2.00003
2.00006
2.00011
2.00021
2.00041
2.00077
2.00145
2.00269
2.00494
2.00911
2.01718
2.03333
2.06568
2.13042
2.25314
2.41407
2.47108
2.46524
2.44985
2.41693
2.37827
2.35511
2.33955
2.32873
2.32281
2
2
2
2
2
2
2
2
2
2
2
2
2
2
2
2
2
2
2
2
2
2
2
2
2
2
2
2
2
2
2
2
2
2.00001
2.00001
2.00002
2.00004
2.00008
2.00016
2.00032
2.00061
2.00115
2.00214
2.00395
2.00725
2.0135
2.02596
2.05089
2.10081
2.19991
2.34923
2.47319
2.46793
2.45364
2.42528
2.39053
2.36377
2.3458
2.33586
2.33179
2
2
2
2
2
2
2
2
2
2
2
2
2
2
2
2
2
2
2
2
2
2
2
2
2
2
2
2
2
2
2
2
2
2.00001
2.00001
2.00002
2.00003
2.00006
2.00013
2.00024
2.00047
2.0009
2.00168
2.00312
2.00573
2.01058
2.02007
2.03907
2.0771
2.15319
2.28645
2.45016
2.45912
2.45274
2.43699
2.40636
2.37319
2.35433
2.34567
2.34351
2
2
2
2
2
2
2
2
2
2
2
2
2
2
2
2
2
2
2
2
2
2
2
2
2
2
2
2
2
2
2
2
2
2
2.00001
2.00001
2.00003
2.00005
2.0001
2.00019
2.00036
2.00069
2.0013
2.00243
2.00448
2.00824
2.01541
2.02973
2.05839
2.11573
2.22668
2.37966
2.46185
2.45743
2.44519
2.41878
2.38552
2.36687
2.35942
2.36019
2
2
2
2
2
2
2
2
2
2
2
2
2
2
2
2
2
2
2
2
2
2
2
2
2
2
2
2
2
2
2
2
2
2
2.00001
2.00001
2.00002
2.00004
2.00007
2.00014
2.00027
2.00052
2.00099
2.00187
2.00347
2.00638
2.01181
2.02248
2.04384
2.08658
2.17191
2.3096
2.45885
2.45452
2.44709
2.43299
2.4032
2.38283
2.38162
2.38261
2
2
2
2
2
2
2
2
2
2
2
2
2
2
2
2
2
2
2
2
2
2
2
2
2
2
2
2
2
2
2
2
2
2
2
2.00001
2.00001
2.00003
2.00005
2.0001
2.0002
2.00039
2.00075
2.00142
2.00265
2.00489
2.00902
2.01689
2.03264
2.06417
2.12723
2.24479
2.40389
2.45549
2.45183
2.44264
2.42442
2.40613
2.40699
2.4131
2
2
2
2
2
2
2
2
2
2
2
2
2
2
2
2
2
2
2
2
2
2
2
2
2
2
2
2
2
2
2
2
2
2
2
2.00001
2.00001
2.00002
2.00004
2.00008
2.00015
2.00029
2.00055
2.00106
2.002
2.00371
2.00685
2.0127
2.0242
2.04722
2.09329
2.18473
2.32475
2.45975
2.45675
2.45216
2.44514
2.43833
2.43988
2.44757
2
2
2
2
2
2
2
2
2
2
2
2
2
2
2
2
2
2
2
2
2
2
2
2
2
2
2
2
2
2
2
2
2
2
2
2
2.00001
2.00001
2.00003
2.00005
2.00011
2.00021
2.0004
2.00078
2.00148
2.00278
2.00516
2.00953
2.01787
2.03456
2.06795
2.13474
2.25578
2.41965
2.46794
2.46756
2.468
2.46961
2.47426
2.48877
2
2
2
2
2
2
2
2
2
2
2
2
2
2
2
2
2
2
2
2
2
2
2
2
2
2
2
2
2
2
2
2
2
2
2
2
2.00001
2.00001
2.00002
2.00004
2.00008
2.00015
2.00029
2.00057
2.00109
2.00206
2.00385
2.00713
2.01326
2.02527
2.04933
2.09747
2.19263
2.33705
2.47314
2.48848
2.49155
2.49762
2.50944
2.53317
2
2
2
2
2
2
2
2
2
2
2
2
2
2
2
2
2
2
2
2
2
2
2
2
2
2
2
2
2
2
2
2
2
2
2
2
2
2.00001
2.00001
2.00003
2.00005
2.00011
2.00021
2.00041
2.00079
2.00152
2.00286
2.00532
2.00987
2.01854
2.0359
2.07065
2.14017
2.26608
2.43976
2.51002
2.51795
2.53102
2.54771
2.56896
2
2
2
2
2
2
2
2
2
2
2
2
2
2
2
2
2
2
2
2
2
2
2
2
2
2
2
2
2
2
2
2
2
2
2
2
2
2.00001
2.00001
2.00002
2.00004
2.00008
2.00015
2.0003
2.00058
2.00111
2.00212
2.00398
2.00741
2.0138
2.02641
2.05165
2.10216
2.20234
2.35827
2.51857
2.56084
2.57054
2.5835
2.59449
2
2
2
2
2
2
2
2
2
2
2
2
2
2
2
2
2
2
2
2
2
2
2
2
2
2
2
2
2
2
2
2
2
2
2
2
2
2
2.00001
2.00002
2.00003
2.00006
2.00011
2.00022
2.00043
2.00083
2.0016
2.00303
2.00567
2.01055
2.01999
2.03887
2.07673
2.15267
2.29408
2.49719
2.61013
2.61496
2.61428
2.61474
2
2
2
2
2
2
2
2
2
2
2
2
2
2
2
2
2
2
2
2
2
2
2
2
2
2
2
2
2
2
2
2
2
2
2
2
2
2
2.00001
2.00001
2.00002
2.00004
2.00008
2.00016
2.00032
2.00063
2.00123
2.00236
2.00445
2.0083
2.01552
2.02977
2.05831
2.11548
2.22925
2.41736
2.6322
2.66053
2.65525
2.64504
2.60462
2.6058
2.60459
2.59739
2.57674
2.53398
2.49612
2.48196
2.45336
2.43966
2.4402
2.41527
2.40524
2.39584
2.37335
2.34929
2.32965
2.30969
2.28889
2.26744
2.24551
2.22328
2.20091
2.17847
2.15586
2.13289
2.10941
2.08538
2.06085
2.03595
2.0108
1.98556
1.9604
1.93545
1.91082
1.8867
1.86332
1.84089
1.81965
1.79984
1.78172
1.76566
1.75192
1.74091
1.73316
1.72875
1.72897
1.73002
1.73155
1.7346
1.74099
1.75232
1.76723
1.78584
1.80532
1.82163
1.83534
1.84779
1.85947
1.87023
1.87987
1.88838
1.89582
1.90216
1.90726
1.91107
1.91385
1.91613
1.91828
1.92041
2.60419
2.60377
2.60028
2.58813
2.55971
2.51182
2.48638
2.46939
2.45237
2.43696
2.42123
2.40898
2.39681
2.3811
2.3613
2.34195
2.32302
2.30325
2.28268
2.26154
2.23998
2.2181
2.19605
2.17388
2.15152
2.12883
2.10568
2.08203
2.05791
2.03342
2.00868
1.98383
1.95901
1.93437
1.91012
1.88643
1.8635
1.84152
1.82071
1.80133
1.7836
1.76786
1.75438
1.74355
1.73591
1.73174
1.73187
1.73231
1.73327
1.73549
1.74029
1.74994
1.76427
1.78222
1.80093
1.81691
1.83065
1.84325
1.85507
1.86599
1.87585
1.88461
1.89236
1.89909
1.90463
1.90887
1.91201
1.91454
1.91706
1.9199
2.6053
2.60183
2.59394
2.57581
2.53793
2.50252
2.48101
2.46356
2.44709
2.431
2.41619
2.40361
2.39037
2.37443
2.35552
2.33685
2.318
2.29828
2.27786
2.25696
2.23566
2.21401
2.19213
2.17009
2.14787
2.12534
2.1024
2.07899
2.05516
2.03098
2.00658
1.98208
1.95765
1.93345
1.90962
1.88635
1.86381
1.84221
1.82177
1.80272
1.78532
1.76981
1.75656
1.74587
1.73827
1.73419
1.73424
1.73458
1.73541
1.73707
1.74078
1.74858
1.76197
1.77964
1.79752
1.81284
1.82638
1.83905
1.85102
1.8621
1.87211
1.88107
1.88905
1.89607
1.90196
1.90655
1.90999
1.91276
1.91557
1.91845
2.60332
2.59807
2.58522
2.55724
2.52208
2.49418
2.47415
2.45674
2.4406
2.42533
2.4109
2.39764
2.38398
2.36797
2.35002
2.33186
2.31307
2.2934
2.27315
2.2525
2.23147
2.21006
2.18838
2.16648
2.1444
2.12204
2.09933
2.0762
2.05266
2.0288
2.00472
1.98057
1.95649
1.93265
1.90919
1.88629
1.86413
1.84291
1.82284
1.80415
1.78709
1.77191
1.75888
1.74842
1.74093
1.73692
1.73695
1.7372
1.73793
1.73925
1.742
1.74793
1.75969
1.77721
1.79427
1.8088
1.82193
1.83452
1.84658
1.85781
1.86799
1.87713
1.88534
1.89266
1.89891
1.90388
1.90764
1.91064
1.9137
1.9164
2.5995
2.59175
2.57103
2.5395
2.51061
2.48667
2.46717
2.45015
2.43458
2.41979
2.40564
2.39219
2.37819
2.36221
2.34482
2.32687
2.30807
2.28848
2.26846
2.24809
2.22734
2.20617
2.18466
2.16292
2.14098
2.1188
2.09631
2.07346
2.05024
2.0267
2.00295
1.97913
1.95539
1.93189
1.9088
1.88627
1.86449
1.84365
1.82396
1.80564
1.78893
1.7741
1.76136
1.75109
1.74375
1.73971
1.73975
1.74002
1.74052
1.7415
1.74372
1.74851
1.75824
1.77492
1.79103
1.80471
1.8173
1.82966
1.84172
1.85307
1.86342
1.87275
1.88117
1.88877
1.8954
1.90077
1.90488
1.90812
1.91142
1.91403
2.59234
2.57944
2.55584
2.52695
2.5012
2.47895
2.46004
2.44363
2.42863
2.41431
2.40051
2.38696
2.37268
2.35681
2.33976
2.32189
2.30309
2.28365
2.26387
2.24378
2.22329
2.20233
2.18099
2.15938
2.13758
2.11559
2.09334
2.07076
2.04784
2.02463
2.00121
1.97772
1.95432
1.93118
1.90844
1.88629
1.86488
1.84443
1.82512
1.80718
1.79083
1.77635
1.76398
1.7539
1.74673
1.74267
1.74275
1.74293
1.74325
1.74405
1.7459
1.7498
1.75773
1.77291
1.78792
1.8007
1.81264
1.8246
1.83652
1.84792
1.85842
1.86792
1.87655
1.88442
1.8914
1.8972
1.90169
1.90518
1.9087
1.91127
2.58209
2.56852
2.54339
2.51645
2.4924
2.47116
2.45302
2.43727
2.4228
2.40892
2.39535
2.38168
2.36723
2.35151
2.33469
2.31688
2.29816
2.27893
2.25942
2.23961
2.21935
2.19858
2.1774
2.15592
2.13426
2.11243
2.09041
2.06811
2.04549
2.02259
1.9995
1.97635
1.95329
1.93049
1.90812
1.88633
1.86532
1.84525
1.82633
1.80878
1.79281
1.77869
1.76667
1.75691
1.74986
1.74582
1.74584
1.74591
1.74618
1.74686
1.74842
1.7517
1.7584
1.77161
1.78519
1.79692
1.80809
1.8195
1.83111
1.84244
1.85303
1.86269
1.87151
1.8796
1.88693
1.89315
1.89804
1.90181
1.90554
1.90811
2.57101
2.5582
2.5325
2.5068
2.48387
2.46366
2.44635
2.43115
2.4171
2.40351
2.39003
2.37626
2.36177
2.34621
2.32956
2.31184
2.29329
2.27432
2.2551
2.23554
2.2155
2.19491
2.17387
2.15253
2.131
2.10935
2.08754
2.0655
2.04318
2.0206
1.99783
1.975
1.95229
1.92985
1.90783
1.88642
1.86579
1.84611
1.82759
1.81043
1.79486
1.78112
1.76945
1.76005
1.75312
1.74917
1.74898
1.74905
1.74927
1.74986
1.75119
1.75398
1.75968
1.77097
1.783
1.79355
1.80382
1.81453
1.82565
1.83675
1.84733
1.85709
1.86606
1.87435
1.88198
1.88862
1.89394
1.89799
1.90192
1.90452
2.56128
2.54832
2.52222
2.49752
2.47566
2.45652
2.43997
2.42519
2.41141
2.398
2.38454
2.37074
2.35629
2.34089
2.32439
2.30683
2.28852
2.26985
2.2509
2.23157
2.21172
2.1913
2.17041
2.14921
2.12782
2.10634
2.08473
2.06295
2.04093
2.01866
1.99621
1.97371
1.95133
1.92923
1.90758
1.88654
1.86629
1.84701
1.82889
1.81214
1.79697
1.78362
1.7723
1.76325
1.75655
1.75264
1.75224
1.75229
1.75248
1.75298
1.75411
1.7565
1.76141
1.77113
1.78162
1.79079
1.80002
1.80989
1.82034
1.83102
1.84143
1.85121
1.86027
1.86871
1.87659
1.88361
1.88938
1.89376
1.89784
1.90048
2.55242
2.53887
2.51239
2.48883
2.4679
2.44976
2.43379
2.41929
2.40568
2.39237
2.37895
2.36518
2.35082
2.33556
2.31922
2.30188
2.28387
2.26549
2.2468
2.22768
2.20801
2.18776
2.16702
2.14595
2.12471
2.10339
2.08199
2.06046
2.03872
2.01676
1.99463
1.97246
1.95041
1.92865
1.90735
1.88669
1.86683
1.84794
1.83023
1.81389
1.79914
1.78619
1.77524
1.76651
1.7601
1.75621
1.75559
1.75563
1.75579
1.75621
1.75719
1.75925
1.76346
1.77181
1.78094
1.78871
1.79683
1.80575
1.81539
1.82546
1.83551
1.84516
1.85422
1.86275
1.8708
1.87816
1.88438
1.88914
1.89338
1.89592
2.54412
2.5296
2.50373
2.48069
2.46057
2.4433
2.42773
2.4134
2.3999
2.38668
2.37334
2.35965
2.34539
2.33026
2.31411
2.29704
2.27935
2.26125
2.2428
2.22387
2.20437
2.18427
2.16368
2.14276
2.12166
2.10051
2.07931
2.05802
2.03656
2.01491
1.9931
1.97125
1.94953
1.92811
1.90717
1.88688
1.8674
1.84892
1.83162
1.81569
1.80136
1.78881
1.77824
1.76983
1.7637
1.75987
1.75901
1.75904
1.75917
1.75953
1.76035
1.76211
1.7657
1.77287
1.78075
1.78738
1.79436
1.80226
1.81098
1.82028
1.82979
1.83913
1.84807
1.85657
1.86472
1.87233
1.87897
1.88414
1.88862
1.8909
2.53616
2.52082
2.49563
2.47272
2.45361
2.43701
2.42171
2.40751
2.39412
2.38102
2.36778
2.35419
2.34002
2.32504
2.3091
2.29232
2.27493
2.25711
2.23887
2.22012
2.20078
2.18085
2.16041
2.13963
2.11868
2.09769
2.07669
2.05564
2.03446
2.0131
1.99161
1.97008
1.94869
1.92761
1.90702
1.8871
1.86801
1.84993
1.83304
1.81754
1.80362
1.79149
1.7813
1.77321
1.76733
1.76361
1.76249
1.76251
1.76261
1.7629
1.76357
1.76504
1.76807
1.77418
1.7811
1.78676
1.79258
1.79948
1.80726
1.81569
1.82449
1.83335
1.84199
1.85034
1.85846
1.86622
1.87322
1.8788
1.88359
1.88569
2.52866
2.51297
2.48707
2.46499
2.44698
2.4308
2.41571
2.40166
2.3884
2.37543
2.36233
2.34885
2.33477
2.31992
2.30421
2.28772
2.27062
2.25305
2.23502
2.21644
2.19727
2.17749
2.15719
2.13656
2.11576
2.09493
2.07412
2.05331
2.03239
2.01134
1.99015
1.96895
1.94789
1.92715
1.90691
1.88736
1.86866
1.85098
1.8345
1.81943
1.80593
1.79421
1.7844
1.77663
1.77097
1.76738
1.76601
1.76602
1.76608
1.76629
1.76682
1.76801
1.77053
1.77562
1.7818
1.78654
1.7915
1.79744
1.80427
1.8118
1.8198
1.82802
1.8362
1.84425
1.85219
1.85996
1.86722
1.87319
1.87832
1.88049
2.52161
2.50472
2.47859
2.45786
2.44052
2.42465
2.40978
2.39589
2.38277
2.36997
2.35702
2.34363
2.32965
2.31494
2.29945
2.28323
2.2664
2.24907
2.23123
2.21283
2.19381
2.17418
2.15403
2.13354
2.11289
2.09223
2.07162
2.05103
2.03038
2.00961
1.98874
1.96786
1.94712
1.92672
1.90684
1.88766
1.86934
1.85206
1.836
1.82135
1.80828
1.79696
1.78753
1.78007
1.77462
1.77114
1.76957
1.76951
1.76954
1.76968
1.77007
1.771
1.77301
1.7771
1.78272
1.78676
1.791
1.79604
1.80203
1.80868
1.81584
1.82332
1.83092
1.83851
1.84613
1.85374
1.86111
1.86741
1.87286
1.87524
2.51449
2.49599
2.47083
2.4511
2.43419
2.41861
2.40396
2.39024
2.37729
2.36466
2.35186
2.33858
2.32469
2.31011
2.29482
2.27884
2.26226
2.24515
2.22751
2.20928
2.19041
2.17093
2.15092
2.13058
2.11008
2.08959
2.06917
2.0488
2.02841
2.00793
1.98736
1.9668
1.94639
1.92633
1.9068
1.88798
1.87005
1.85318
1.83753
1.8233
1.81065
1.79974
1.79067
1.78352
1.77827
1.77488
1.77319
1.77289
1.7729
1.773
1.77329
1.774
1.77556
1.77877
1.78376
1.78729
1.79082
1.79523
1.80043
1.80629
1.81265
1.81937
1.82629
1.83332
1.84047
1.84776
1.85506
1.8616
1.86736
1.86996
2.50687
2.48772
2.46364
2.44458
2.42804
2.41275
2.3983
2.38474
2.37196
2.35953
2.34688
2.3337
2.31989
2.30544
2.29032
2.27455
2.25819
2.2413
2.22385
2.20579
2.18707
2.16772
2.14786
2.12766
2.10732
2.087
2.06677
2.04662
2.02648
2.00628
1.98602
1.96577
1.94569
1.92596
1.90678
1.88834
1.87079
1.85432
1.83908
1.82527
1.81304
1.80252
1.79382
1.78697
1.78192
1.7786
1.77681
1.77621
1.77621
1.77627
1.77646
1.77697
1.77812
1.78051
1.78487
1.78802
1.79101
1.79484
1.79938
1.80456
1.8102
1.81618
1.82242
1.82882
1.83541
1.84224
1.84929
1.85589
1.86193
1.86478
2.49905
2.4801
2.45686
2.4383
2.42212
2.40708
2.3928
2.37939
2.36681
2.35457
2.34208
2.329
2.31527
2.30092
2.28593
2.27035
2.2542
2.23751
2.22024
2.20234
2.18377
2.16456
2.14484
2.12479
2.10462
2.08447
2.06443
2.04449
2.0246
2.00467
1.9847
1.96477
1.94501
1.92562