/*--------------------------------*- C++ -*----------------------------------*\
  =========                 |
  \\      /  F ield         | OpenFOAM: The Open Source CFD Toolbox
   \\    /   O peration     | Website:  https://openfoam.org
    \\  /    A nd           | Version:  9
     \\/     M anipulation  |
\*---------------------------------------------------------------------------*/
FoamFile
{
    format      ascii;
    class       surfaceScalarField;
    location    "0.005";
    object      phi;
}
// * * * * * * * * * * * * * * * * * * * * * * * * * * * * * * * * * * * * * //

dimensions      [1 0 -1 0 0 0 0];

internalField   nonuniform List<scalar> 
72280
(
1.12235e-05
-4.79388e-17
1.12235e-05
-1.16745e-16
1.12235e-05
-1.53818e-16
1.12235e-05
-1.63756e-16
1.12235e-05
-1.94506e-16
1.12235e-05
-2.55756e-16
1.12235e-05
-3.36841e-16
1.12235e-05
-4.40782e-16
1.12235e-05
-5.76574e-16
1.12235e-05
-7.55966e-16
1.12235e-05
-9.93386e-16
1.12235e-05
-1.30759e-15
1.12235e-05
-1.72418e-15
1.12235e-05
-2.27802e-15
1.12235e-05
-3.0167e-15
1.12235e-05
-4.00604e-15
1.12235e-05
-5.3376e-15
1.12235e-05
-7.13922e-15
1.12235e-05
-9.59036e-15
1.12235e-05
-1.29439e-14
1.12235e-05
-1.75554e-14
1.12235e-05
-2.39236e-14
1.12235e-05
-3.27466e-14
1.12235e-05
-4.50028e-14
1.12235e-05
-6.2075e-14
1.12235e-05
-8.59377e-14
1.12235e-05
-1.19437e-13
1.12235e-05
-1.66693e-13
1.12235e-05
-2.33668e-13
1.12235e-05
-3.28978e-13
1.12235e-05
-4.65087e-13
1.12235e-05
-6.60289e-13
1.12235e-05
-9.426e-13
1.12235e-05
-1.35898e-12
1.12235e-05
-1.99869e-12
1.12235e-05
-3.04984e-12
1.12235e-05
-4.92016e-12
1.12234e-05
-8.4659e-12
1.12234e-05
-1.54133e-11
1.12234e-05
-2.91837e-11
1.12234e-05
-5.65434e-11
1.12233e-05
-1.10818e-10
1.12231e-05
-2.18083e-10
1.12228e-05
-4.28784e-10
1.12221e-05
-8.38778e-10
1.12208e-05
-1.62598e-09
1.12183e-05
-3.1121e-09
1.12137e-05
-5.86891e-09
1.12055e-05
-1.09262e-08
1.1191e-05
-2.03022e-08
1.11645e-05
-3.85383e-08
1.11108e-05
-7.5748e-08
1.10025e-05
-1.49911e-07
1.07818e-05
-2.97804e-07
1.03192e-05
-5.72168e-07
9.69295e-06
-1.02803e-06
9.30928e-06
-1.02966e-06
9.76434e-06
-7.66469e-07
1.00487e-05
-5.3723e-07
-3.11964e-07
1.02624e-05
1.12235e-05
-3.85647e-17
1.12235e-05
-1.19572e-16
1.12235e-05
-1.79391e-16
1.12235e-05
-2.00199e-16
1.12235e-05
-2.22945e-16
1.12235e-05
-2.95103e-16
1.12235e-05
-3.94513e-16
1.12235e-05
-5.20748e-16
1.12235e-05
-6.85019e-16
1.12235e-05
-9.02153e-16
1.12235e-05
-1.19044e-15
1.12235e-05
-1.57418e-15
1.12235e-05
-2.08641e-15
1.12235e-05
-2.77281e-15
1.12235e-05
-3.6968e-15
1.12235e-05
-4.9467e-15
1.12235e-05
-6.6464e-15
1.12235e-05
-8.9704e-15
1.12235e-05
-1.21666e-14
1.12235e-05
-1.65878e-14
1.12235e-05
-2.27365e-14
1.12235e-05
-3.13285e-14
1.12235e-05
-4.33825e-14
1.12235e-05
-6.03488e-14
1.12235e-05
-8.43008e-14
1.12235e-05
-1.18217e-13
1.12235e-05
-1.66395e-13
1.12235e-05
-2.35057e-13
1.12235e-05
-3.33208e-13
1.12235e-05
-4.7389e-13
1.12235e-05
-6.76077e-13
1.12235e-05
-9.67955e-13
1.12235e-05
-1.39376e-12
1.12235e-05
-2.03041e-12
1.12235e-05
-3.02902e-12
1.12235e-05
-4.71006e-12
1.12234e-05
-7.75642e-12
1.12234e-05
-1.35738e-11
1.12234e-05
-2.49699e-11
1.12234e-05
-4.74994e-11
1.12233e-05
-9.21304e-11
1.12232e-05
-1.80405e-10
1.12229e-05
-3.54259e-10
1.12223e-05
-6.94153e-10
1.12212e-05
-1.3513e-09
1.12191e-05
-2.60283e-09
1.12151e-05
-4.94456e-09
1.12079e-05
-9.25743e-09
1.1195e-05
-1.71663e-08
1.11716e-05
-3.19659e-08
1.1125e-05
-6.12055e-08
1.10315e-05
-1.20228e-07
1.08459e-05
-2.39684e-07
1.04808e-05
-4.83043e-07
9.8482e-06
-8.82485e-07
9.09261e-06
-1.38992e-06
8.78901e-06
-1.15318e-06
8.90897e-06
-8.76138e-07
9.02093e-06
-6.49278e-07
-4.63372e-07
9.12487e-06
1.12235e-05
-3.08708e-17
1.12235e-05
-1.06208e-16
1.12235e-05
-1.75396e-16
1.12235e-05
-2.06326e-16
1.12235e-05
-2.34377e-16
1.12235e-05
-3.09839e-16
1.12235e-05
-4.16662e-16
1.12235e-05
-5.53855e-16
1.12235e-05
-7.32989e-16
1.12235e-05
-9.70559e-16
1.12235e-05
-1.28798e-15
1.12235e-05
-1.71327e-15
1.12235e-05
-2.2857e-15
1.12235e-05
-3.05981e-15
1.12235e-05
-4.11234e-15
1.12235e-05
-5.55159e-15
1.12235e-05
-7.53032e-15
1.12235e-05
-1.02668e-14
1.12235e-05
-1.40734e-14
1.12235e-05
-1.93994e-14
1.12235e-05
-2.68921e-14
1.12235e-05
-3.7484e-14
1.12235e-05
-5.25183e-14
1.12235e-05
-7.39296e-14
1.12235e-05
-1.04508e-13
1.12235e-05
-1.48282e-13
1.12235e-05
-2.11087e-13
1.12235e-05
-3.01376e-13
1.12235e-05
-4.3141e-13
1.12235e-05
-6.19004e-13
1.12235e-05
-8.90259e-13
1.12235e-05
-1.28455e-12
1.12235e-05
-1.86557e-12
1.12235e-05
-2.74875e-12
1.12235e-05
-4.16729e-12
1.12234e-05
-6.61426e-12
1.12234e-05
-1.11192e-11
1.12234e-05
-1.97676e-11
1.12234e-05
-3.67065e-11
1.12234e-05
-7.01335e-11
1.12232e-05
-1.36192e-10
1.1223e-05
-2.66442e-10
1.12226e-05
-5.21838e-10
1.12218e-05
-1.01801e-09
1.12203e-05
-1.96926e-09
1.12175e-05
-3.76281e-09
1.12122e-05
-7.08668e-09
1.12026e-05
-1.31766e-08
1.11855e-05
-2.44077e-08
1.11539e-05
-4.58648e-08
1.10916e-05
-8.89888e-08
1.09683e-05
-1.7594e-07
1.07233e-05
-3.53025e-07
1.02271e-05
-6.87537e-07
9.53444e-06
-1.19077e-06
9.01341e-06
-1.38592e-06
8.8762e-06
-1.17983e-06
8.84633e-06
-9.601e-07
8.84162e-06
-7.45914e-07
-5.17864e-07
8.85664e-06
1.12235e-05
-2.70484e-17
1.12235e-05
-9.56446e-17
1.12235e-05
-1.6699e-16
1.12235e-05
-2.02201e-16
1.12235e-05
-2.41129e-16
1.12235e-05
-3.20524e-16
1.12235e-05
-4.31629e-16
1.12235e-05
-5.76875e-16
1.12235e-05
-7.68378e-16
1.12235e-05
-1.02421e-15
1.12235e-05
-1.36798e-15
1.12235e-05
-1.83236e-15
1.12235e-05
-2.46291e-15
1.12235e-05
-3.3241e-15
1.12235e-05
-4.50705e-15
1.12235e-05
-6.1417e-15
1.12235e-05
-8.41377e-15
1.12235e-05
-1.15904e-14
1.12235e-05
-1.60579e-14
1.12235e-05
-2.23767e-14
1.12235e-05
-3.13605e-14
1.12235e-05
-4.4192e-14
1.12235e-05
-6.25887e-14
1.12235e-05
-8.90439e-14
1.12235e-05
-1.27176e-13
1.12235e-05
-1.82237e-13
1.12235e-05
-2.61855e-13
1.12235e-05
-3.77109e-13
1.12235e-05
-5.44113e-13
1.12235e-05
-7.86376e-13
1.12235e-05
-1.13865e-12
1.12235e-05
-1.65435e-12
1.12235e-05
-2.42296e-12
1.12235e-05
-3.61295e-12
1.12235e-05
-5.56991e-12
1.12234e-05
-9.01654e-12
1.12234e-05
-1.54347e-11
1.12234e-05
-2.77974e-11
1.12234e-05
-5.20042e-11
1.12233e-05
-9.96992e-11
1.12232e-05
-1.93724e-10
1.12229e-05
-3.78432e-10
1.12223e-05
-7.38614e-10
1.12212e-05
-1.43296e-09
1.12191e-05
-2.7511e-09
1.12153e-05
-5.21028e-09
1.12082e-05
-9.7307e-09
1.11956e-05
-1.80117e-08
1.11727e-05
-3.3494e-08
1.11293e-05
-6.39947e-08
1.10436e-05
-1.25481e-07
1.08728e-05
-2.49941e-07
1.05262e-05
-5.03316e-07
9.97379e-06
-9.2265e-07
9.32597e-06
-1.52125e-06
9.08102e-06
-1.34642e-06
9.03526e-06
-1.21712e-06
9.00028e-06
-1.0403e-06
8.94349e-06
-8.45856e-07
-5.57998e-07
8.8714e-06
1.12235e-05
-2.44759e-17
1.12235e-05
-8.81773e-17
1.12235e-05
-1.59864e-16
1.12235e-05
-1.97693e-16
1.12235e-05
-2.47011e-16
1.12235e-05
-3.31094e-16
1.12235e-05
-4.46472e-16
1.12235e-05
-5.99713e-16
1.12235e-05
-8.03991e-16
1.12235e-05
-1.07889e-15
1.12235e-05
-1.45145e-15
1.12235e-05
-1.95928e-15
1.12235e-05
-2.65524e-15
1.12235e-05
-3.61489e-15
1.12235e-05
-4.94621e-15
1.12235e-05
-6.80459e-15
1.12235e-05
-9.41427e-15
1.12235e-05
-1.31007e-14
1.12235e-05
-1.83377e-14
1.12235e-05
-2.58177e-14
1.12235e-05
-3.65527e-14
1.12235e-05
-5.20224e-14
1.12235e-05
-7.43874e-14
1.12235e-05
-1.06801e-13
1.12235e-05
-1.53862e-13
1.12235e-05
-2.22276e-13
1.12235e-05
-3.21814e-13
1.12235e-05
-4.66711e-13
1.12235e-05
-6.7773e-13
1.12235e-05
-9.85314e-13
1.12235e-05
-1.43493e-12
1.12235e-05
-2.09808e-12
1.12235e-05
-3.09899e-12
1.12235e-05
-4.67869e-12
1.12234e-05
-7.33363e-12
1.12234e-05
-1.20877e-11
1.12234e-05
-2.1013e-11
1.12234e-05
-3.82452e-11
1.12233e-05
-7.1975e-11
1.12232e-05
-1.38324e-10
1.1223e-05
-2.68744e-10
1.12226e-05
-5.23778e-10
1.12218e-05
-1.01775e-09
1.12203e-05
-1.96145e-09
1.12175e-05
-3.7341e-09
1.12123e-05
-7.00884e-09
1.12029e-05
-1.29985e-08
1.1186e-05
-2.40452e-08
1.1155e-05
-4.5171e-08
1.10944e-05
-8.7702e-08
1.09745e-05
-1.73642e-07
1.07371e-05
-3.48939e-07
1.02686e-05
-6.84713e-07
9.64344e-06
-1.1784e-06
9.25416e-06
-1.43391e-06
9.18e-06
-1.319e-06
9.13575e-06
-1.23548e-06
9.10233e-06
-1.0988e-06
9.05548e-06
-9.23854e-07
-6.34591e-07
8.92931e-06
1.12235e-05
-2.3302e-17
1.12235e-05
-8.36214e-17
1.12235e-05
-1.55172e-16
1.12235e-05
-1.94857e-16
1.12235e-05
-2.52242e-16
1.12235e-05
-3.42079e-16
1.12235e-05
-4.62927e-16
1.12235e-05
-6.24965e-16
1.12235e-05
-8.43275e-16
1.12235e-05
-1.1398e-15
1.12235e-05
-1.54525e-15
1.12235e-05
-2.10285e-15
1.12235e-05
-2.8744e-15
1.12235e-05
-3.94827e-15
1.12235e-05
-5.4524e-15
1.12235e-05
-7.57223e-15
1.12235e-05
-1.05778e-14
1.12235e-05
-1.48635e-14
1.12235e-05
-2.1008e-14
1.12235e-05
-2.9861e-14
1.12235e-05
-4.26712e-14
1.12235e-05
-6.12704e-14
1.12235e-05
-8.83444e-14
1.12235e-05
-1.27828e-13
1.12235e-05
-1.85483e-13
1.12235e-05
-2.69748e-13
1.12235e-05
-3.92962e-13
1.12235e-05
-5.73158e-13
1.12235e-05
-8.36725e-13
1.12235e-05
-1.22256e-12
1.12235e-05
-1.7895e-12
1.12235e-05
-2.63253e-12
1.12235e-05
-3.92248e-12
1.12235e-05
-5.99755e-12
1.12234e-05
-9.55169e-12
1.12234e-05
-1.59986e-11
1.12234e-05
-2.81767e-11
1.12234e-05
-5.17324e-11
1.12233e-05
-9.78194e-11
1.12232e-05
-1.88297e-10
1.12229e-05
-3.65512e-10
1.12223e-05
-7.10114e-10
1.12212e-05
-1.3723e-09
1.12191e-05
-2.62482e-09
1.12153e-05
-4.95312e-09
1.12083e-05
-9.22096e-09
1.11959e-05
-1.70298e-08
1.11733e-05
-3.16385e-08
1.11309e-05
-6.0483e-08
1.10465e-05
-1.18766e-07
1.08789e-05
-2.3688e-07
1.05407e-05
-4.79042e-07
1.00114e-05
-8.88275e-07
9.41087e-06
-1.51707e-06
9.26395e-06
-1.35191e-06
9.23339e-06
-1.34293e-06
9.22032e-06
-1.2642e-06
9.16613e-06
-1.12498e-06
9.08219e-06
-9.71114e-07
-7.42208e-07
9.0183e-06
1.12235e-05
-2.2683e-17
1.12235e-05
-8.08413e-17
1.12235e-05
-1.52552e-16
1.12235e-05
-1.94132e-16
1.12235e-05
-2.58367e-16
1.12235e-05
-3.5392e-16
1.12235e-05
-4.81397e-16
1.12235e-05
-6.53633e-16
1.12235e-05
-8.87849e-16
1.12235e-05
-1.2088e-15
1.12235e-05
-1.65171e-15
1.12235e-05
-2.26648e-15
1.12235e-05
-3.12508e-15
1.12235e-05
-4.33139e-15
1.12235e-05
-6.03666e-15
1.12235e-05
-8.46152e-15
1.12235e-05
-1.19297e-14
1.12235e-05
-1.69176e-14
1.12235e-05
-2.41279e-14
1.12235e-05
-3.45967e-14
1.12235e-05
-4.98515e-14
1.12235e-05
-7.214e-14
1.12235e-05
-1.04766e-13
1.12235e-05
-1.52584e-13
1.12235e-05
-2.22731e-13
1.12235e-05
-3.25697e-13
1.12235e-05
-4.76884e-13
1.12235e-05
-6.9887e-13
1.12235e-05
-1.02481e-12
1.12235e-05
-1.50387e-12
1.12235e-05
-2.21152e-12
1.12235e-05
-3.27317e-12
1.12235e-05
-4.9212e-12
1.12234e-05
-7.62044e-12
1.12234e-05
-1.23182e-11
1.12234e-05
-2.09273e-11
1.12234e-05
-3.72707e-11
1.12233e-05
-6.89303e-11
1.12232e-05
-1.3083e-10
1.1223e-05
-2.52049e-10
1.12226e-05
-4.88427e-10
1.12218e-05
-9.45013e-10
1.12203e-05
-1.8146e-09
1.12176e-05
-3.44263e-09
1.12124e-05
-6.44103e-09
1.12033e-05
-1.19132e-08
1.11868e-05
-2.19981e-08
1.11564e-05
-4.12962e-08
1.10968e-05
-8.02337e-08
1.09793e-05
-1.5903e-07
1.07469e-05
-3.19627e-07
1.0284e-05
-6.36408e-07
9.67903e-06
-1.11287e-06
9.39233e-06
-1.41477e-06
9.3371e-06
-1.38702e-06
9.40306e-06
-1.35696e-06
9.42551e-06
-1.27828e-06
9.32023e-06
-1.14234e-06
9.2411e-06
-1.01153e-06
-8.43495e-07
9.20091e-06
1.12235e-05
-2.23326e-17
1.12235e-05
-8.00412e-17
1.12235e-05
-1.52222e-16
1.12235e-05
-1.95591e-16
1.12235e-05
-2.6533e-16
1.12235e-05
-3.67044e-16
1.12235e-05
-5.02192e-16
1.12235e-05
-6.85771e-16
1.12235e-05
-9.37749e-16
1.12235e-05
-1.28643e-15
1.12235e-05
-1.77183e-15
1.12235e-05
-2.45169e-15
1.12235e-05
-3.40991e-15
1.12235e-05
-4.76823e-15
1.12235e-05
-6.70494e-15
1.12235e-05
-9.48196e-15
1.12235e-05
-1.34859e-14
1.12235e-05
-1.9289e-14
1.12235e-05
-2.77384e-14
1.12235e-05
-4.00885e-14
1.12235e-05
-5.81921e-14
1.12235e-05
-8.47813e-14
1.12235e-05
-1.23881e-13
1.12235e-05
-1.8142e-13
1.12235e-05
-2.66147e-13
1.12235e-05
-3.90964e-13
1.12235e-05
-5.74882e-13
1.12235e-05
-8.45864e-13
1.12235e-05
-1.24511e-12
1.12235e-05
-1.83415e-12
1.12235e-05
-2.70911e-12
1.12235e-05
-4.03441e-12
1.12235e-05
-6.12183e-12
1.12234e-05
-9.59732e-12
1.12234e-05
-1.57281e-11
1.12234e-05
-2.70592e-11
1.12234e-05
-4.86595e-11
1.12233e-05
-9.05489e-11
1.12232e-05
-1.72357e-10
1.12229e-05
-3.32057e-10
1.12223e-05
-6.41805e-10
1.12212e-05
-1.23554e-09
1.12192e-05
-2.35561e-09
1.12155e-05
-4.43209e-09
1.12088e-05
-8.22928e-09
1.11968e-05
-1.51646e-08
1.11749e-05
-2.81254e-08
1.11338e-05
-5.37326e-08
1.10522e-05
-1.05509e-07
1.089e-05
-2.10576e-07
1.05648e-05
-4.26792e-07
1.0029e-05
-8.1016e-07
9.3978e-06
-1.45951e-06
9.38513e-06
-1.34849e-06
9.41016e-06
-1.35421e-06
9.46652e-06
-1.34494e-06
9.52912e-06
-1.25649e-06
9.45856e-06
-1.15287e-06
9.44216e-06
-1.04847e-06
-9.28462e-07
9.40189e-06
1.12235e-05
-2.24631e-17
1.12235e-05
-8.03382e-17
1.12235e-05
-1.53432e-16
1.12235e-05
-1.98749e-16
1.12235e-05
-2.73576e-16
1.12235e-05
-3.81598e-16
1.12235e-05
-5.2537e-16
1.12235e-05
-7.21725e-16
1.12235e-05
-9.93723e-16
1.12235e-05
-1.3732e-15
1.12235e-05
-1.90606e-15
1.12235e-05
-2.65906e-15
1.12235e-05
-3.72941e-15
1.12235e-05
-5.25977e-15
1.12235e-05
-7.4596e-15
1.12235e-05
-1.06383e-14
1.12235e-05
-1.52552e-14
1.12235e-05
-2.19926e-14
1.12235e-05
-3.18647e-14
1.12235e-05
-4.63763e-14
1.12235e-05
-6.77546e-14
1.12235e-05
-9.92903e-14
1.12235e-05
-1.45839e-13
1.12235e-05
-2.14576e-13
1.12235e-05
-3.16113e-13
1.12235e-05
-4.66159e-13
1.12235e-05
-6.8793e-13
1.12235e-05
-1.01567e-12
1.12235e-05
-1.50004e-12
1.12235e-05
-2.21729e-12
1.12235e-05
-3.289e-12
1.12235e-05
-4.92884e-12
1.12234e-05
-7.54861e-12
1.12234e-05
-1.19753e-11
1.12234e-05
-1.98751e-11
1.12234e-05
-3.45813e-11
1.12234e-05
-6.27133e-11
1.12232e-05
-1.17304e-10
1.1223e-05
-2.23736e-10
1.12227e-05
-4.30683e-10
1.12219e-05
-8.29544e-10
1.12205e-05
-1.58766e-09
1.12178e-05
-3.00412e-09
1.12129e-05
-5.60765e-09
1.12042e-05
-1.03498e-08
1.11885e-05
-1.90719e-08
1.11596e-05
-3.57206e-08
1.11029e-05
-6.93388e-08
1.09908e-05
-1.37376e-07
1.07691e-05
-2.75864e-07
1.03205e-05
-5.57698e-07
9.72006e-06
-9.97603e-07
9.37212e-06
-1.404e-06
9.31893e-06
-1.40976e-06
9.43062e-06
-1.35791e-06
9.49307e-06
-1.31014e-06
9.59212e-06
-1.21712e-06
9.6309e-06
-1.14861e-06
9.56247e-06
-1.07437e-06
-9.95248e-07
9.52094e-06
1.12235e-05
-2.27703e-17
1.12235e-05
-8.13537e-17
1.12235e-05
-1.55705e-16
1.12235e-05
-2.03179e-16
1.12235e-05
-2.83193e-16
1.12235e-05
-3.97691e-16
1.12235e-05
-5.50657e-16
1.12235e-05
-7.61534e-16
1.12235e-05
-1.0555e-15
1.12235e-05
-1.4688e-15
1.12235e-05
-2.05406e-15
1.12235e-05
-2.88814e-15
1.12235e-05
-4.08342e-15
1.12235e-05
-5.80564e-15
1.12235e-05
-8.29993e-15
1.12235e-05
-1.19302e-14
1.12235e-05
-1.72383e-14
1.12235e-05
-2.50315e-14
1.12235e-05
-3.6513e-14
1.12235e-05
-5.34712e-14
1.12235e-05
-7.85584e-14
1.12235e-05
-1.15699e-13
1.12235e-05
-1.70699e-13
1.12235e-05
-2.52153e-13
1.12235e-05
-3.72816e-13
1.12235e-05
-5.51613e-13
1.12235e-05
-8.16586e-13
1.12235e-05
-1.20921e-12
1.12235e-05
-1.79104e-12
1.12235e-05
-2.65578e-12
1.12235e-05
-3.95597e-12
1.12235e-05
-5.96624e-12
1.12234e-05
-9.2218e-12
1.12234e-05
-1.47965e-11
1.12234e-05
-2.48462e-11
1.12234e-05
-4.36719e-11
1.12233e-05
-7.97864e-11
1.12232e-05
-1.49871e-10
1.12229e-05
-2.86184e-10
1.12224e-05
-5.4996e-10
1.12214e-05
-1.05473e-09
1.12195e-05
-2.00566e-09
1.1216e-05
-3.7662e-09
1.12097e-05
-6.98087e-09
1.11985e-05
-1.28391e-08
1.11781e-05
-2.3752e-08
1.11398e-05
-4.52284e-08
1.10636e-05
-8.86928e-08
1.09122e-05
-1.7696e-07
1.06107e-05
-3.58122e-07
1.00621e-05
-7.02215e-07
9.38893e-06
-1.24662e-06
9.35349e-06
-1.29508e-06
9.38729e-06
-1.32499e-06
9.48208e-06
-1.33341e-06
9.51651e-06
-1.26963e-06
9.62281e-06
-1.18013e-06
9.67949e-06
-1.13061e-06
9.64222e-06
-1.09178e-06
-1.03686e-06
9.64013e-06
1.12235e-05
-2.31188e-17
1.12235e-05
-8.28067e-17
1.12235e-05
-1.5873e-16
1.12235e-05
-2.08567e-16
1.12235e-05
-2.93946e-16
1.12235e-05
-4.15159e-16
1.12235e-05
-5.78329e-16
1.12235e-05
-8.04525e-16
1.12235e-05
-1.12248e-15
1.12235e-05
-1.57279e-15
1.12235e-05
-2.21532e-15
1.12235e-05
-3.13773e-15
1.12235e-05
-4.46941e-15
1.12235e-05
-6.40232e-15
1.12235e-05
-9.2215e-15
1.12235e-05
-1.33517e-14
1.12235e-05
-1.9427e-14
1.12235e-05
-2.83945e-14
1.12235e-05
-4.16677e-14
1.12235e-05
-6.13516e-14
1.12235e-05
-9.05727e-14
1.12235e-05
-1.33967e-13
1.12235e-05
-1.98406e-13
1.12235e-05
-2.94095e-13
1.12235e-05
-4.36206e-13
1.12235e-05
-6.47303e-13
1.12235e-05
-9.6088e-13
1.12235e-05
-1.42657e-12
1.12235e-05
-2.11837e-12
1.12235e-05
-3.1503e-12
1.12235e-05
-4.71213e-12
1.12234e-05
-7.15249e-12
1.12234e-05
-1.11559e-11
1.12234e-05
-1.80944e-11
1.12234e-05
-3.07158e-11
1.12234e-05
-5.44871e-11
1.12233e-05
-1.00188e-10
1.12231e-05
-1.88822e-10
1.12227e-05
-3.60671e-10
1.1222e-05
-6.91349e-10
1.12207e-05
-1.31925e-09
1.12183e-05
-2.49164e-09
1.12138e-05
-4.64487e-09
1.12058e-05
-8.56087e-09
1.11915e-05
-1.57398e-08
1.1165e-05
-2.93599e-08
1.11132e-05
-5.68198e-08
1.10107e-05
-1.12349e-07
1.0808e-05
-2.25367e-07
1.03975e-05
-4.59064e-07
9.79963e-06
-8.5256e-07
9.22674e-06
-1.38445e-06
9.33706e-06
-1.35235e-06
9.34693e-06
-1.29679e-06
9.42287e-06
-1.28337e-06
9.56676e-06
-1.2046e-06
9.63997e-06
-1.14995e-06
9.69212e-06
-1.11117e-06
9.71182e-06
-1.08689e-06
-1.05796e-06
9.7177e-06
1.12235e-05
-2.3745e-17
1.12235e-05
-8.48913e-17
1.12235e-05
-1.62458e-16
1.12235e-05
-2.14685e-16
1.12235e-05
-3.05286e-16
1.12235e-05
-4.33715e-16
1.12235e-05
-6.07483e-16
1.12235e-05
-8.50377e-16
1.12235e-05
-1.19392e-15
1.12235e-05
-1.68383e-15
1.12235e-05
-2.38768e-15
1.12235e-05
-3.4051e-15
1.12235e-05
-4.8839e-15
1.12235e-05
-7.04455e-15
1.12235e-05
-1.02161e-14
1.12235e-05
-1.48906e-14
1.12235e-05
-2.18035e-14
1.12235e-05
-3.20548e-14
1.12235e-05
-4.7289e-14
1.12235e-05
-6.9958e-14
1.12235e-05
-1.0371e-13
1.12235e-05
-1.53966e-13
1.12235e-05
-2.28785e-13
1.12235e-05
-3.40158e-13
1.12235e-05
-5.05955e-13
1.12235e-05
-7.52785e-13
1.12235e-05
-1.12019e-12
1.12235e-05
-1.66686e-12
1.12235e-05
-2.48075e-12
1.12235e-05
-3.69931e-12
1.12235e-05
-5.5563e-12
1.12234e-05
-8.48842e-12
1.12234e-05
-1.33577e-11
1.12234e-05
-2.18906e-11
1.12234e-05
-3.75377e-11
1.12233e-05
-6.71438e-11
1.12232e-05
-1.24145e-10
1.1223e-05
-2.34553e-10
1.12225e-05
-4.47777e-10
1.12216e-05
-8.55485e-10
1.12199e-05
-1.62342e-09
1.12168e-05
-3.04513e-09
1.12111e-05
-5.63981e-09
1.1201e-05
-1.03566e-08
1.11828e-05
-1.90971e-08
1.11485e-05
-3.61233e-08
1.10804e-05
-7.06528e-08
1.09452e-05
-1.40722e-07
1.06767e-05
-2.83903e-07
1.01484e-05
-5.73276e-07
9.46759e-06
-1.00522e-06
9.32255e-06
-1.28007e-06
9.32121e-06
-1.30255e-06
9.24077e-06
-1.29342e-06
9.42247e-06
-1.21811e-06
9.57549e-06
-1.14535e-06
9.65413e-06
-1.11265e-06
9.6954e-06
-1.08959e-06
9.72218e-06
-1.07312e-06
-1.06002e-06
9.73499e-06
1.12235e-05
-2.42953e-17
1.12235e-05
-8.70532e-17
1.12235e-05
-1.6644e-16
1.12235e-05
-2.21179e-16
1.12235e-05
-3.17384e-16
1.12235e-05
-4.52995e-16
1.12235e-05
-6.37771e-16
1.12235e-05
-8.97942e-16
1.12235e-05
-1.26859e-15
1.12235e-05
-1.80039e-15
1.12235e-05
-2.56883e-15
1.12235e-05
-3.68643e-15
1.12235e-05
-5.32129e-15
1.12235e-05
-7.72452e-15
1.12235e-05
-1.12723e-14
1.12235e-05
-1.65287e-14
1.12235e-05
-2.4339e-14
1.12235e-05
-3.59687e-14
1.12235e-05
-5.33106e-14
1.12235e-05
-7.91906e-14
1.12235e-05
-1.17822e-13
1.12235e-05
-1.75481e-13
1.12235e-05
-2.6152e-13
1.12235e-05
-3.89892e-13
1.12235e-05
-5.81414e-13
1.12235e-05
-8.67117e-13
1.12235e-05
-1.29313e-12
1.12235e-05
-1.92802e-12
1.12235e-05
-2.87519e-12
1.12235e-05
-4.29869e-12
1.12234e-05
-6.48337e-12
1.12234e-05
-9.96882e-12
1.12234e-05
-1.58243e-11
1.12234e-05
-2.61902e-11
1.12234e-05
-4.53356e-11
1.12233e-05
-8.17004e-11
1.12231e-05
-1.51767e-10
1.12228e-05
-2.87202e-10
1.12222e-05
-5.47545e-10
1.1221e-05
-1.04195e-09
1.12189e-05
-1.96567e-09
1.1215e-05
-3.66296e-09
1.12079e-05
-6.74729e-09
1.11953e-05
-1.23769e-08
1.11721e-05
-2.29638e-08
1.11268e-05
-4.41672e-08
1.10372e-05
-8.70191e-08
1.08595e-05
-1.74252e-07
1.05072e-05
-3.54083e-07
9.89919e-06
-6.91026e-07
9.20008e-06
-1.2225e-06
9.23867e-06
-1.18771e-06
9.29454e-06
-1.21345e-06
9.38916e-06
-1.23295e-06
9.45673e-06
-1.1675e-06
9.56927e-06
-1.09911e-06
9.65228e-06
-1.07195e-06
9.69412e-06
-1.06236e-06
9.72068e-06
-1.05393e-06
-1.05015e-06
9.74039e-06
1.12235e-05
-2.47881e-17
1.12235e-05
-8.90564e-17
1.12235e-05
-1.70312e-16
1.12235e-05
-2.27673e-16
1.12235e-05
-3.29782e-16
1.12235e-05
-4.72575e-16
1.12235e-05
-6.68478e-16
1.12235e-05
-9.46379e-16
1.12235e-05
-1.34478e-15
1.12235e-05
-1.91988e-15
1.12235e-05
-2.75537e-15
1.12235e-05
-3.97745e-15
1.12235e-05
-5.77505e-15
1.12235e-05
-8.43158e-15
1.12235e-05
-1.23735e-14
1.12235e-05
-1.8241e-14
1.12235e-05
-2.69949e-14
1.12235e-05
-4.00755e-14
1.12235e-05
-5.96385e-14
1.12235e-05
-8.89075e-14
1.12235e-05
-1.32697e-13
1.12235e-05
-1.98199e-13
1.12235e-05
-2.96154e-13
1.12235e-05
-4.42619e-13
1.12235e-05
-6.61583e-13
1.12235e-05
-9.88809e-13
1.12235e-05
-1.47746e-12
1.12235e-05
-2.20668e-12
1.12235e-05
-3.29669e-12
1.12235e-05
-4.94136e-12
1.12234e-05
-7.48377e-12
1.12234e-05
-1.15814e-11
1.12234e-05
-1.85413e-11
1.12234e-05
-3.09779e-11
1.12233e-05
-5.40941e-11
1.12232e-05
-9.81364e-11
1.1223e-05
-1.82998e-10
1.12226e-05
-3.46571e-10
1.12219e-05
-6.59345e-10
1.12204e-05
-1.24909e-09
1.12177e-05
-2.34245e-09
1.12128e-05
-4.33904e-09
1.12041e-05
-7.96092e-09
1.11884e-05
-1.46264e-08
1.1159e-05
-2.74053e-08
1.11009e-05
-5.33609e-08
1.09855e-05
-1.059e-07
1.07569e-05
-2.13058e-07
1.02938e-05
-4.35501e-07
9.63851e-06
-8.06821e-07
9.09791e-06
-1.2582e-06
9.19615e-06
-1.24668e-06
9.2575e-06
-1.18583e-06
9.32773e-06
-1.15868e-06
9.4913e-06
-1.09825e-06
9.57021e-06
-1.05689e-06
9.63864e-06
-1.03351e-06
9.68561e-06
-1.0298e-06
9.71289e-06
-1.02944e-06
-1.03264e-06
9.736e-06
1.12235e-05
-2.54028e-17
1.12235e-05
-9.10359e-17
1.12235e-05
-1.7403e-16
1.12235e-05
-2.33983e-16
1.12235e-05
-3.41614e-16
1.12235e-05
-4.91436e-16
1.12235e-05
-6.98625e-16
1.12235e-05
-9.94305e-16
1.12235e-05
-1.42065e-15
1.12235e-05
-2.0395e-15
1.12235e-05
-2.94346e-15
1.12235e-05
-4.27224e-15
1.12235e-05
-6.23623e-15
1.12235e-05
-9.15269e-15
1.12235e-05
-1.34994e-14
1.12235e-05
-1.99957e-14
1.12235e-05
-2.97214e-14
1.12235e-05
-4.42975e-14
1.12235e-05
-6.61535e-14
1.12235e-05
-9.89268e-14
1.12235e-05
-1.48062e-13
1.12235e-05
-2.2171e-13
1.12235e-05
-3.32073e-13
1.12235e-05
-4.97427e-13
1.12235e-05
-7.45089e-13
1.12235e-05
-1.11578e-12
1.12235e-05
-1.67003e-12
1.12235e-05
-2.4981e-12
1.12235e-05
-3.73822e-12
1.12234e-05
-5.61713e-12
1.12234e-05
-8.54313e-12
1.12234e-05
-1.33063e-11
1.12234e-05
-2.14808e-11
1.12234e-05
-3.62133e-11
1.12233e-05
-6.3749e-11
1.12232e-05
-1.16332e-10
1.12229e-05
-2.17575e-10
1.12224e-05
-4.12048e-10
1.12214e-05
-7.8177e-10
1.12196e-05
-1.47393e-09
1.12163e-05
-2.74813e-09
1.12103e-05
-5.06429e-09
1.11996e-05
-9.27231e-09
1.11802e-05
-1.71043e-08
1.11425e-05
-3.25464e-08
1.10689e-05
-6.38036e-08
1.09224e-05
-1.2732e-07
1.06296e-05
-2.57357e-07
1.0059e-05
-5.22542e-07
9.33023e-06
-9.16736e-07
9.21414e-06
-1.16016e-06
9.18448e-06
-1.17876e-06
9.14362e-06
-1.16904e-06
9.31788e-06
-1.08575e-06
9.49111e-06
-1.03129e-06
9.57312e-06
-1.00986e-06
9.62379e-06
-9.96468e-07
9.66944e-06
-9.95021e-07
9.69991e-06
-1.00024e-06
-1.0094e-06
9.72445e-06
1.12235e-05
-2.5653e-17
1.12235e-05
-9.30953e-17
1.12235e-05
-1.779e-16
1.12235e-05
-2.41066e-16
1.12235e-05
-3.5289e-16
1.12235e-05
-5.0866e-16
1.12235e-05
-7.26686e-16
1.12235e-05
-1.04005e-15
1.12235e-05
-1.49407e-15
1.12235e-05
-2.15631e-15
1.12235e-05
-3.12842e-15
1.12235e-05
-4.56395e-15
1.12235e-05
-6.695e-15
1.12235e-05
-9.87245e-15
1.12235e-05
-1.46261e-14
1.12235e-05
-2.17545e-14
1.12235e-05
-3.24584e-14
1.12235e-05
-4.85415e-14
1.12235e-05
-7.27111e-14
1.12235e-05
-1.09028e-13
1.12235e-05
-1.63582e-13
1.12235e-05
-2.4551e-13
1.12235e-05
-3.68521e-13
1.12235e-05
-5.53167e-13
1.12235e-05
-8.30185e-13
1.12235e-05
-1.24538e-12
1.12235e-05
-1.86678e-12
1.12235e-05
-2.79612e-12
1.12235e-05
-4.19065e-12
1.12234e-05
-6.31265e-12
1.12234e-05
-9.64207e-12
1.12234e-05
-1.5115e-11
1.12234e-05
-2.46001e-11
1.12234e-05
-4.18277e-11
1.12233e-05
-7.41782e-11
1.12231e-05
-1.36049e-10
1.12228e-05
-2.55001e-10
1.12221e-05
-4.82563e-10
1.12209e-05
-9.12587e-10
1.12187e-05
-1.71211e-09
1.12147e-05
-3.17507e-09
1.12074e-05
-5.82678e-09
1.11944e-05
-1.0669e-08
1.11704e-05
-1.9809e-08
1.11233e-05
-3.82063e-08
1.10298e-05
-7.53839e-08
1.0844e-05
-1.51182e-07
1.04722e-05
-3.07523e-07
9.82523e-06
-6.0767e-07
9.08827e-06
-1.01292e-06
9.13036e-06
-1.05653e-06
9.20415e-06
-1.10896e-06
9.27293e-06
-1.10375e-06
9.3438e-06
-1.03842e-06
9.47549e-06
-9.7625e-07
9.56526e-06
-9.59948e-07
9.61029e-06
-9.57463e-07
9.64911e-06
-9.59257e-07
9.68187e-06
-9.67206e-07
-9.80961e-07
9.708e-06
1.12235e-05
-2.63438e-17
1.12235e-05
-9.50148e-17
1.12235e-05
-1.82035e-16
1.12235e-05
-2.49933e-16
1.12235e-05
-3.60603e-16
1.12235e-05
-5.23113e-16
1.12235e-05
-7.52196e-16
1.12235e-05
-1.0825e-15
1.12235e-05
-1.56301e-15
1.12235e-05
-2.26719e-15
1.12235e-05
-3.30548e-15
1.12235e-05
-4.84501e-15
1.12235e-05
-7.13947e-15
1.12235e-05
-1.05728e-14
1.12235e-05
-1.57257e-14
1.12235e-05
-2.34742e-14
1.12235e-05
-3.51374e-14
1.12235e-05
-5.27e-14
1.12235e-05
-7.91454e-14
1.12235e-05
-1.18956e-13
1.12235e-05
-1.78869e-13
1.12235e-05
-2.6901e-13
1.12235e-05
-4.04597e-13
1.12235e-05
-6.08466e-13
1.12235e-05
-9.14768e-13
1.12235e-05
-1.37436e-12
1.12235e-05
-2.06279e-12
1.12235e-05
-3.0933e-12
1.12234e-05
-4.64287e-12
1.12234e-05
-7.01155e-12
1.12234e-05
-1.07564e-11
1.12234e-05
-1.69709e-11
1.12234e-05
-2.78404e-11
1.12233e-05
-4.77201e-11
1.12232e-05
-8.51946e-11
1.1223e-05
-1.56916e-10
1.12226e-05
-2.94514e-10
1.12218e-05
-5.56559e-10
1.12204e-05
-1.04874e-09
1.12177e-05
-1.95797e-09
1.12128e-05
-3.61366e-09
1.12041e-05
-6.61222e-09
1.11884e-05
-1.2132e-08
1.11589e-05
-2.27273e-08
1.11002e-05
-4.42874e-08
1.09835e-05
-8.79301e-08
1.07517e-05
-1.77073e-07
1.02837e-05
-3.62661e-07
9.59041e-06
-6.85933e-07
8.96134e-06
-1.10976e-06
9.09566e-06
-1.04801e-06
9.14155e-06
-1.01957e-06
9.25624e-06
-1.02925e-06
9.38295e-06
-9.7615e-07
9.46636e-06
-9.29157e-07
9.54705e-06
-9.12192e-07
9.59474e-06
-9.15571e-07
9.62777e-06
-9.21877e-07
9.66003e-06
-9.31482e-07
-9.48588e-07
9.6857e-06
1.12235e-05
-2.68659e-17
1.12235e-05
-9.63956e-17
1.12235e-05
-1.84633e-16
1.12235e-05
-2.56041e-16
1.12235e-05
-3.68994e-16
1.12235e-05
-5.36027e-16
1.12235e-05
-7.74618e-16
1.12235e-05
-1.12029e-15
1.12235e-05
-1.62544e-15
1.12235e-05
-2.36871e-15
1.12235e-05
-3.46924e-15
1.12235e-05
-5.10732e-15
1.12235e-05
-7.55712e-15
1.12235e-05
-1.12342e-14
1.12235e-05
-1.67672e-14
1.12235e-05
-2.51058e-14
1.12235e-05
-3.76825e-14
1.12235e-05
-5.66552e-14
1.12235e-05
-8.52736e-14
1.12235e-05
-1.2843e-13
1.12235e-05
-1.93491e-13
1.12235e-05
-2.91548e-13
1.12235e-05
-4.39289e-13
1.12235e-05
-6.61765e-13
1.12235e-05
-9.9644e-13
1.12235e-05
-1.49906e-12
1.12235e-05
-2.25242e-12
1.12235e-05
-3.38115e-12
1.12234e-05
-5.08213e-12
1.12234e-05
-7.69473e-12
1.12234e-05
-1.18571e-11
1.12234e-05
-1.88286e-11
1.12234e-05
-3.11264e-11
1.12233e-05
-5.37555e-11
1.12232e-05
-9.65412e-11
1.12229e-05
-1.78425e-10
1.12224e-05
-3.3509e-10
1.12215e-05
-6.32011e-10
1.12197e-05
-1.18639e-09
1.12165e-05
-2.20464e-09
1.12107e-05
-4.05237e-09
1.12004e-05
-7.40411e-09
1.11815e-05
-1.36347e-08
1.11447e-05
-2.58968e-08
1.10727e-05
-5.07332e-08
1.09302e-05
-1.0118e-07
1.06445e-05
-2.04479e-07
1.00755e-05
-4.19321e-07
9.32671e-06
-7.55738e-07
9.11676e-06
-1.03838e-06
9.06857e-06
-1.04373e-06
8.99741e-06
-1.02378e-06
9.21906e-06
-9.31956e-07
9.39594e-06
-9.06598e-07
9.46593e-06
-8.81569e-07
9.52644e-06
-8.67515e-07
9.57507e-06
-8.72123e-07
9.60602e-06
-8.82319e-07
9.63522e-06
-8.93732e-07
-9.13413e-07
9.65971e-06
1.12235e-05
-2.69101e-17
1.12235e-05
-9.73595e-17
1.12235e-05
-1.86011e-16
1.12235e-05
-2.59885e-16
1.12235e-05
-3.75876e-16
1.12235e-05
-5.46946e-16
1.12235e-05
-7.93213e-16
1.12235e-05
-1.15196e-15
1.12235e-05
-1.6789e-15
1.12235e-05
-2.45735e-15
1.12235e-05
-3.61428e-15
1.12235e-05
-5.34241e-15
1.12235e-05
-7.93481e-15
1.12235e-05
-1.18356e-14
1.12235e-05
-1.77174e-14
1.12235e-05
-2.65975e-14
1.12235e-05
-4.00122e-14
1.12235e-05
-6.02802e-14
1.12235e-05
-9.08998e-14
1.12235e-05
-1.37148e-13
1.12235e-05
-2.06985e-13
1.12235e-05
-3.1241e-13
1.12235e-05
-4.71492e-13
1.12235e-05
-7.11361e-13
1.12235e-05
-1.07257e-12
1.12235e-05
-1.61542e-12
1.12235e-05
-2.42951e-12
1.12235e-05
-3.6503e-12
1.12234e-05
-5.49438e-12
1.12234e-05
-8.34101e-12
1.12234e-05
-1.29114e-11
1.12234e-05
-2.06346e-11
1.12234e-05
-3.43652e-11
1.12233e-05
-5.97632e-11
1.12231e-05
-1.07888e-10
1.12228e-05
-1.99923e-10
1.12222e-05
-3.75445e-10
1.12211e-05
-7.06472e-10
1.1219e-05
-1.32106e-09
1.12152e-05
-2.44434e-09
1.12084e-05
-4.47805e-09
1.11962e-05
-8.18272e-09
1.11736e-05
-1.51486e-08
1.11293e-05
-2.91141e-08
1.10414e-05
-5.73383e-08
1.08668e-05
-1.1487e-07
1.05176e-05
-2.33158e-07
9.86876e-06
-4.72386e-07
9.08365e-06
-8.11696e-07
9.06036e-06
-9.53344e-07
9.06677e-06
-9.72319e-07
9.12649e-06
-9.60686e-07
9.21041e-06
-8.85789e-07
9.38524e-06
-8.4241e-07
9.4638e-06
-8.30626e-07
9.50835e-06
-8.23732e-07
9.55237e-06
-8.28328e-07
9.58313e-06
-8.40658e-07
9.60809e-06
-8.5224e-07
-8.7175e-07
9.6319e-06
1.12235e-05
-2.69121e-17
1.12235e-05
-9.76128e-17
1.12235e-05
-1.86145e-16
1.12235e-05
-2.61991e-16
1.12235e-05
-3.80305e-16
1.12235e-05
-5.54507e-16
1.12235e-05
-8.06979e-16
1.12235e-05
-1.17654e-15
1.12235e-05
-1.72126e-15
1.12235e-05
-2.52959e-15
1.12235e-05
-3.73529e-15
1.12235e-05
-5.54199e-15
1.12235e-05
-8.25881e-15
1.12235e-05
-1.2355e-14
1.12235e-05
-1.85416e-14
1.12235e-05
-2.78944e-14
1.12235e-05
-4.20414e-14
1.12235e-05
-6.34437e-14
1.12235e-05
-9.58217e-14
1.12235e-05
-1.44798e-13
1.12235e-05
-2.18867e-13
1.12235e-05
-3.30846e-13
1.12235e-05
-5.00046e-13
1.12235e-05
-7.55456e-13
1.12235e-05
-1.14038e-12
1.12235e-05
-1.71918e-12
1.12235e-05
-2.58753e-12
1.12234e-05
-3.89087e-12
1.12234e-05
-5.86472e-12
1.12234e-05
-8.92768e-12
1.12234e-05
-1.38834e-11
1.12234e-05
-2.23285e-11
1.12233e-05
-3.74487e-11
1.12232e-05
-6.55398e-11
1.12231e-05
-1.18843e-10
1.12227e-05
-2.20646e-10
1.1222e-05
-4.14121e-10
1.12206e-05
-7.77223e-10
1.12182e-05
-1.44785e-09
1.12137e-05
-2.66858e-09
1.12058e-05