/*--------------------------------*- C++ -*----------------------------------*\
  =========                 |
  \\      /  F ield         | OpenFOAM: The Open Source CFD Toolbox
   \\    /   O peration     | Website:  https://openfoam.org
    \\  /    A nd           | Version:  9
     \\/     M anipulation  |
\*---------------------------------------------------------------------------*/
FoamFile
{
    format      ascii;
    class       volScalarField;
    location    "0.005";
    object      rho;
}
// * * * * * * * * * * * * * * * * * * * * * * * * * * * * * * * * * * * * * //

dimensions      [1 -3 0 0 0 0 0];

internalField   nonuniform List<scalar> 
36400
(
2.37139e-05
2.37139e-05
2.37139e-05
2.37139e-05
2.37139e-05
2.37139e-05
2.37139e-05
2.37139e-05
2.37139e-05
2.37139e-05
2.37139e-05
2.37139e-05
2.37139e-05
2.37139e-05
2.37139e-05
2.37139e-05
2.37139e-05
2.37139e-05
2.37139e-05
2.37139e-05
2.37139e-05
2.37139e-05
2.37139e-05
2.37139e-05
2.37139e-05
2.37139e-05
2.37139e-05
2.37139e-05
2.37139e-05
2.37139e-05
2.37139e-05
2.37139e-05
2.37139e-05
2.37139e-05
2.37139e-05
2.37139e-05
2.37139e-05
2.3714e-05
2.3714e-05
2.3714e-05
2.37141e-05
2.37143e-05
2.37146e-05
2.37152e-05
2.37165e-05
2.37189e-05
2.37236e-05
2.37326e-05
2.37492e-05
2.37796e-05
2.38364e-05
2.39475e-05
2.41695e-05
2.46119e-05
2.55016e-05
2.70033e-05
2.88221e-05
2.91717e-05
2.91588e-05
2.91185e-05
2.37139e-05
2.37139e-05
2.37139e-05
2.37139e-05
2.37139e-05
2.37139e-05
2.37139e-05
2.37139e-05
2.37139e-05
2.37139e-05
2.37139e-05
2.37139e-05
2.37139e-05
2.37139e-05
2.37139e-05
2.37139e-05
2.37139e-05
2.37139e-05
2.37139e-05
2.37139e-05
2.37139e-05
2.37139e-05
2.37139e-05
2.37139e-05
2.37139e-05
2.37139e-05
2.37139e-05
2.37139e-05
2.37139e-05
2.37139e-05
2.37139e-05
2.37139e-05
2.37139e-05
2.37139e-05
2.37139e-05
2.37139e-05
2.37139e-05
2.3714e-05
2.3714e-05
2.3714e-05
2.37142e-05
2.37144e-05
2.37148e-05
2.37156e-05
2.37173e-05
2.37205e-05
2.37265e-05
2.37379e-05
2.37587e-05
2.37971e-05
2.38707e-05
2.40178e-05
2.43118e-05
2.4902e-05
2.60259e-05
2.76955e-05
2.86832e-05
2.87535e-05
2.87509e-05
2.8769e-05
2.37139e-05
2.37139e-05
2.37139e-05
2.37139e-05
2.37139e-05
2.37139e-05
2.37139e-05
2.37139e-05
2.37139e-05
2.37139e-05
2.37139e-05
2.37139e-05
2.37139e-05
2.37139e-05
2.37139e-05
2.37139e-05
2.37139e-05
2.37139e-05
2.37139e-05
2.37139e-05
2.37139e-05
2.37139e-05
2.37139e-05
2.37139e-05
2.37139e-05
2.37139e-05
2.37139e-05
2.37139e-05
2.37139e-05
2.37139e-05
2.37139e-05
2.37139e-05
2.37139e-05
2.37139e-05
2.37139e-05
2.37139e-05
2.37139e-05
2.3714e-05
2.3714e-05
2.37141e-05
2.37142e-05
2.37145e-05
2.37151e-05
2.37162e-05
2.37185e-05
2.37227e-05
2.37306e-05
2.37454e-05
2.37723e-05
2.38223e-05
2.39202e-05
2.41157e-05
2.45062e-05
2.52927e-05
2.6545e-05
2.7914e-05
2.82859e-05
2.8364e-05
2.84679e-05
2.8566e-05
2.37139e-05
2.37139e-05
2.37139e-05
2.37139e-05
2.37139e-05
2.37139e-05
2.37139e-05
2.37139e-05
2.37139e-05
2.37139e-05
2.37139e-05
2.37139e-05
2.37139e-05
2.37139e-05
2.37139e-05
2.37139e-05
2.37139e-05
2.37139e-05
2.37139e-05
2.37139e-05
2.37139e-05
2.37139e-05
2.37139e-05
2.37139e-05
2.37139e-05
2.37139e-05
2.37139e-05
2.37139e-05
2.37139e-05
2.37139e-05
2.37139e-05
2.37139e-05
2.37139e-05
2.37139e-05
2.37139e-05
2.37139e-05
2.3714e-05
2.3714e-05
2.3714e-05
2.37141e-05
2.37144e-05
2.37148e-05
2.37156e-05
2.37171e-05
2.37202e-05
2.37259e-05
2.37365e-05
2.37559e-05
2.37916e-05
2.3859e-05
2.39937e-05
2.42626e-05
2.48027e-05
2.58058e-05
2.72431e-05
2.78859e-05
2.7949e-05
2.80477e-05
2.81737e-05
2.83448e-05
2.37139e-05
2.37139e-05
2.37139e-05
2.37139e-05
2.37139e-05
2.37139e-05
2.37139e-05
2.37139e-05
2.37139e-05
2.37139e-05
2.37139e-05
2.37139e-05
2.37139e-05
2.37139e-05
2.37139e-05
2.37139e-05
2.37139e-05
2.37139e-05
2.37139e-05
2.37139e-05
2.37139e-05
2.37139e-05
2.37139e-05
2.37139e-05
2.37139e-05
2.37139e-05
2.37139e-05
2.37139e-05
2.37139e-05
2.37139e-05
2.37139e-05
2.37139e-05
2.37139e-05
2.37139e-05
2.37139e-05
2.37139e-05
2.3714e-05
2.3714e-05
2.37141e-05
2.37142e-05
2.37145e-05
2.37151e-05
2.37162e-05
2.37184e-05
2.37225e-05
2.37302e-05
2.37443e-05
2.37701e-05
2.3818e-05
2.39113e-05
2.40977e-05
2.447e-05
2.52191e-05
2.63872e-05
2.75747e-05
2.77244e-05
2.77433e-05
2.77859e-05
2.78706e-05
2.80501e-05
2.37139e-05
2.37139e-05
2.37139e-05
2.37139e-05
2.37139e-05
2.37139e-05
2.37139e-05
2.37139e-05
2.37139e-05
2.37139e-05
2.37139e-05
2.37139e-05
2.37139e-05
2.37139e-05
2.37139e-05
2.37139e-05
2.37139e-05
2.37139e-05
2.37139e-05
2.37139e-05
2.37139e-05
2.37139e-05
2.37139e-05
2.37139e-05
2.37139e-05
2.37139e-05
2.37139e-05
2.37139e-05
2.37139e-05
2.37139e-05
2.37139e-05
2.37139e-05
2.37139e-05
2.37139e-05
2.37139e-05
2.3714e-05
2.3714e-05
2.3714e-05
2.37141e-05
2.37144e-05
2.37148e-05
2.37156e-05
2.37171e-05
2.37201e-05
2.37256e-05
2.37359e-05
2.37546e-05
2.3789e-05
2.38539e-05
2.39833e-05
2.42418e-05
2.47607e-05
2.5727e-05
2.70903e-05
2.75636e-05
2.75526e-05
2.7557e-05
2.7569e-05
2.75988e-05
2.76942e-05
2.37139e-05
2.37139e-05
2.37139e-05
2.37139e-05
2.37139e-05
2.37139e-05
2.37139e-05
2.37139e-05
2.37139e-05
2.37139e-05
2.37139e-05
2.37139e-05
2.37139e-05
2.37139e-05
2.37139e-05
2.37139e-05
2.37139e-05
2.37139e-05
2.37139e-05
2.37139e-05
2.37139e-05
2.37139e-05
2.37139e-05
2.37139e-05
2.37139e-05
2.37139e-05
2.37139e-05
2.37139e-05
2.37139e-05
2.37139e-05
2.37139e-05
2.37139e-05
2.37139e-05
2.37139e-05
2.3714e-05
2.3714e-05
2.3714e-05
2.37141e-05
2.37142e-05
2.37145e-05
2.37151e-05
2.37162e-05
2.37183e-05
2.37223e-05
2.37297e-05
2.37432e-05
2.37679e-05
2.38137e-05
2.3903e-05
2.40815e-05
2.44379e-05
2.51569e-05
2.62904e-05
2.74761e-05
2.74687e-05
2.74363e-05
2.73811e-05
2.73214e-05
2.73276e-05
2.73695e-05
2.37139e-05
2.37139e-05
2.37139e-05
2.37139e-05
2.37139e-05
2.37139e-05
2.37139e-05
2.37139e-05
2.37139e-05
2.37139e-05
2.37139e-05
2.37139e-05
2.37139e-05
2.37139e-05
2.37139e-05
2.37139e-05
2.37139e-05
2.37139e-05
2.37139e-05
2.37139e-05
2.37139e-05
2.37139e-05
2.37139e-05
2.37139e-05
2.37139e-05
2.37139e-05
2.37139e-05
2.37139e-05
2.37139e-05
2.37139e-05
2.37139e-05
2.37139e-05
2.37139e-05
2.37139e-05
2.3714e-05
2.3714e-05
2.3714e-05
2.37141e-05
2.37143e-05
2.37147e-05
2.37155e-05
2.3717e-05
2.37198e-05
2.37251e-05
2.37348e-05
2.37526e-05
2.3785e-05
2.38463e-05
2.39686e-05
2.42128e-05
2.47021e-05
2.56391e-05
2.69576e-05
2.7467e-05
2.74343e-05
2.73658e-05
2.72233e-05
2.70645e-05
2.70652e-05
2.7098e-05
2.37139e-05
2.37139e-05
2.37139e-05
2.37139e-05
2.37139e-05
2.37139e-05
2.37139e-05
2.37139e-05
2.37139e-05
2.37139e-05
2.37139e-05
2.37139e-05
2.37139e-05
2.37139e-05
2.37139e-05
2.37139e-05
2.37139e-05
2.37139e-05
2.37139e-05
2.37139e-05
2.37139e-05
2.37139e-05
2.37139e-05
2.37139e-05
2.37139e-05
2.37139e-05
2.37139e-05
2.37139e-05
2.37139e-05
2.37139e-05
2.37139e-05
2.37139e-05
2.37139e-05
2.37139e-05
2.3714e-05
2.3714e-05
2.37141e-05
2.37142e-05
2.37145e-05
2.3715e-05
2.3716e-05
2.3718e-05
2.37218e-05
2.37287e-05
2.37413e-05
2.37643e-05
2.38068e-05
2.38897e-05
2.40554e-05
2.43862e-05
2.50543e-05
2.61653e-05
2.7458e-05
2.7454e-05
2.74013e-05
2.72947e-05
2.70565e-05
2.688e-05
2.6861e-05
2.68582e-05
2.37139e-05
2.37139e-05
2.37139e-05
2.37139e-05
2.37139e-05
2.37139e-05
2.37139e-05
2.37139e-05
2.37139e-05
2.37139e-05
2.37139e-05
2.37139e-05
2.37139e-05
2.37139e-05
2.37139e-05
2.37139e-05
2.37139e-05
2.37139e-05
2.37139e-05
2.37139e-05
2.37139e-05
2.37139e-05
2.37139e-05
2.37139e-05
2.37139e-05
2.37139e-05
2.37139e-05
2.37139e-05
2.37139e-05
2.37139e-05
2.37139e-05
2.37139e-05
2.37139e-05
2.3714e-05
2.3714e-05
2.3714e-05
2.37141e-05
2.37143e-05
2.37147e-05
2.37154e-05
2.37167e-05
2.37193e-05
2.37242e-05
2.37331e-05
2.37493e-05
2.37789e-05
2.38347e-05
2.3946e-05
2.41682e-05
2.46124e-05
2.54924e-05
2.67501e-05
2.75169e-05
2.74801e-05
2.73907e-05
2.71853e-05
2.69133e-05
2.67529e-05
2.66828e-05
2.66823e-05
2.37139e-05
2.37139e-05
2.37139e-05
2.37139e-05
2.37139e-05
2.37139e-05
2.37139e-05
2.37139e-05
2.37139e-05
2.37139e-05
2.37139e-05
2.37139e-05
2.37139e-05
2.37139e-05
2.37139e-05
2.37139e-05
2.37139e-05
2.37139e-05
2.37139e-05
2.37139e-05
2.37139e-05
2.37139e-05
2.37139e-05
2.37139e-05
2.37139e-05
2.37139e-05
2.37139e-05
2.37139e-05
2.37139e-05
2.37139e-05
2.37139e-05
2.37139e-05
2.37139e-05
2.3714e-05
2.3714e-05
2.37141e-05
2.37142e-05
2.37144e-05
2.37149e-05
2.37158e-05
2.37176e-05
2.3721e-05
2.37272e-05
2.37386e-05
2.37592e-05
2.37972e-05
2.3871e-05
2.40185e-05
2.43131e-05
2.49056e-05
2.59751e-05
2.73603e-05
2.74972e-05
2.74484e-05
2.73293e-05
2.70887e-05
2.68105e-05
2.66513e-05
2.65749e-05
2.65511e-05
2.37139e-05
2.37139e-05
2.37139e-05
2.37139e-05
2.37139e-05
2.37139e-05
2.37139e-05
2.37139e-05
2.37139e-05
2.37139e-05
2.37139e-05
2.37139e-05
2.37139e-05
2.37139e-05
2.37139e-05
2.37139e-05
2.37139e-05
2.37139e-05
2.37139e-05
2.37139e-05
2.37139e-05
2.37139e-05
2.37139e-05
2.37139e-05
2.37139e-05
2.37139e-05
2.37139e-05
2.37139e-05
2.37139e-05
2.37139e-05
2.37139e-05
2.37139e-05
2.3714e-05
2.3714e-05
2.3714e-05
2.37141e-05
2.37143e-05
2.37146e-05
2.37152e-05
2.37164e-05
2.37187e-05
2.3723e-05
2.37309e-05
2.37451e-05
2.37711e-05
2.38199e-05
2.39168e-05
2.41103e-05
2.44967e-05
2.52765e-05
2.64914e-05
2.75943e-05
2.75626e-05
2.74592e-05
2.72404e-05
2.69596e-05
2.67333e-05
2.65817e-05
2.64969e-05
2.64597e-05
2.37139e-05
2.37139e-05
2.37139e-05
2.37139e-05
2.37139e-05
2.37139e-05
2.37139e-05
2.37139e-05
2.37139e-05
2.37139e-05
2.37139e-05
2.37139e-05
2.37139e-05
2.37139e-05
2.37139e-05
2.37139e-05
2.37139e-05
2.37139e-05
2.37139e-05
2.37139e-05
2.37139e-05
2.37139e-05
2.37139e-05
2.37139e-05
2.37139e-05
2.37139e-05
2.37139e-05
2.37139e-05
2.37139e-05
2.37139e-05
2.37139e-05
2.37139e-05
2.3714e-05
2.3714e-05
2.3714e-05
2.37142e-05
2.37144e-05
2.37148e-05
2.37156e-05
2.37171e-05
2.372e-05
2.37254e-05
2.37352e-05
2.3753e-05
2.37857e-05
2.38485e-05
2.39741e-05
2.42249e-05
2.47269e-05
2.57041e-05
2.70393e-05
2.75964e-05
2.75473e-05
2.74331e-05
2.7174e-05
2.68573e-05
2.66626e-05
2.6531e-05
2.64399e-05
2.63893e-05
2.37139e-05
2.37139e-05
2.37139e-05
2.37139e-05
2.37139e-05
2.37139e-05
2.37139e-05
2.37139e-05
2.37139e-05
2.37139e-05
2.37139e-05
2.37139e-05
2.37139e-05
2.37139e-05
2.37139e-05
2.37139e-05
2.37139e-05
2.37139e-05
2.37139e-05
2.37139e-05
2.37139e-05
2.37139e-05
2.37139e-05
2.37139e-05
2.37139e-05
2.37139e-05
2.37139e-05
2.37139e-05
2.37139e-05
2.37139e-05
2.37139e-05
2.3714e-05
2.3714e-05
2.3714e-05
2.37141e-05
2.37142e-05
2.37145e-05
2.3715e-05
2.3716e-05
2.3718e-05
2.37216e-05
2.37283e-05
2.37404e-05
2.37624e-05
2.38032e-05
2.38838e-05
2.40448e-05
2.43663e-05
2.50138e-05
2.6156e-05
2.75408e-05
2.75715e-05
2.75175e-05
2.73746e-05
2.70931e-05
2.67932e-05
2.66048e-05
2.64884e-05
2.63986e-05
2.6337e-05
2.37139e-05
2.37139e-05
2.37139e-05
2.37139e-05
2.37139e-05
2.37139e-05
2.37139e-05
2.37139e-05
2.37139e-05
2.37139e-05
2.37139e-05
2.37139e-05
2.37139e-05
2.37139e-05
2.37139e-05
2.37139e-05
2.37139e-05
2.37139e-05
2.37139e-05
2.37139e-05
2.37139e-05
2.37139e-05
2.37139e-05
2.37139e-05
2.37139e-05
2.37139e-05
2.37139e-05
2.37139e-05
2.37139e-05
2.37139e-05
2.37139e-05
2.3714e-05
2.3714e-05
2.3714e-05
2.37141e-05
2.37143e-05
2.37146e-05
2.37153e-05
2.37166e-05
2.3719e-05
2.37235e-05
2.37316e-05
2.37464e-05
2.37734e-05
2.38245e-05
2.39265e-05
2.41306e-05
2.45382e-05
2.5359e-05
2.66277e-05
2.76968e-05
2.76545e-05
2.75375e-05
2.72649e-05
2.69851e-05
2.67427e-05
2.65656e-05
2.64528e-05
2.63672e-05
2.62998e-05
2.37139e-05
2.37139e-05
2.37139e-05
2.37139e-05
2.37139e-05
2.37139e-05
2.37139e-05
2.37139e-05
2.37139e-05
2.37139e-05
2.37139e-05
2.37139e-05
2.37139e-05
2.37139e-05
2.37139e-05
2.37139e-05
2.37139e-05
2.37139e-05
2.37139e-05
2.37139e-05
2.37139e-05
2.37139e-05
2.37139e-05
2.37139e-05
2.37139e-05
2.37139e-05
2.37139e-05
2.37139e-05
2.37139e-05
2.37139e-05
2.3714e-05
2.3714e-05
2.3714e-05
2.37141e-05
2.37142e-05
2.37144e-05
2.37148e-05
2.37156e-05
2.37172e-05
2.37202e-05
2.37256e-05
2.37355e-05
2.37533e-05
2.37863e-05
2.38503e-05
2.39781e-05
2.42334e-05
2.47444e-05
2.57428e-05
2.71038e-05
2.76987e-05
2.76457e-05
2.7514e-05
2.72131e-05
2.6894e-05
2.6692e-05
2.65385e-05
2.64266e-05
2.63428e-05
2.62725e-05
2.37139e-05
2.37139e-05
2.37139e-05
2.37139e-05
2.37139e-05
2.37139e-05
2.37139e-05
2.37139e-05
2.37139e-05
2.37139e-05
2.37139e-05
2.37139e-05
2.37139e-05
2.37139e-05
2.37139e-05
2.37139e-05
2.37139e-05
2.37139e-05
2.37139e-05
2.37139e-05
2.37139e-05
2.37139e-05
2.37139e-05
2.37139e-05
2.37139e-05
2.37139e-05
2.37139e-05
2.37139e-05
2.37139e-05
2.37139e-05
2.3714e-05
2.3714e-05
2.3714e-05
2.37141e-05
2.37142e-05
2.37145e-05
2.3715e-05
2.3716e-05
2.37179e-05
2.37215e-05
2.3728e-05
2.37398e-05
2.37613e-05
2.38013e-05
2.38806e-05
2.40389e-05
2.43551e-05
2.49907e-05
2.61419e-05
2.75447e-05
2.76578e-05
2.75995e-05
2.74577e-05
2.71666e-05
2.68367e-05
2.66462e-05
2.65156e-05
2.64088e-05
2.63241e-05
2.6253e-05
2.37139e-05
2.37139e-05
2.37139e-05
2.37139e-05
2.37139e-05
2.37139e-05
2.37139e-05
2.37139e-05
2.37139e-05
2.37139e-05
2.37139e-05
2.37139e-05
2.37139e-05
2.37139e-05
2.37139e-05
2.37139e-05
2.37139e-05
2.37139e-05
2.37139e-05
2.37139e-05
2.37139e-05
2.37139e-05
2.37139e-05
2.37139e-05
2.37139e-05
2.37139e-05
2.37139e-05
2.37139e-05
2.37139e-05
2.37139e-05
2.3714e-05
2.3714e-05
2.3714e-05
2.37141e-05
2.37143e-05
2.37146e-05
2.37153e-05
2.37165e-05
2.37188e-05
2.3723e-05
2.37308e-05
2.37448e-05
2.37703e-05
2.38189e-05
2.39157e-05
2.41095e-05
2.44965e-05
2.52773e-05
2.65447e-05
2.77607e-05
2.77317e-05
2.75758e-05
2.73665e-05
2.70816e-05
2.67992e-05
2.66127e-05
2.64945e-05
2.63963e-05
2.63111e-05
2.62413e-05
2.37139e-05
2.37139e-05
2.37139e-05
2.37139e-05
2.37139e-05
2.37139e-05
2.37139e-05
2.37139e-05
2.37139e-05
2.37139e-05
2.37139e-05
2.37139e-05
2.37139e-05
2.37139e-05
2.37139e-05
2.37139e-05
2.37139e-05
2.37139e-05
2.37139e-05
2.37139e-05
2.37139e-05
2.37139e-05
2.37139e-05
2.37139e-05
2.37139e-05
2.37139e-05
2.37139e-05
2.37139e-05
2.37139e-05
2.3714e-05
2.3714e-05
2.3714e-05
2.37141e-05
2.37142e-05
2.37144e-05
2.37148e-05
2.37155e-05
2.3717e-05
2.37197e-05
2.37247e-05
2.37338e-05
2.37503e-05
2.37805e-05
2.38392e-05
2.39564e-05
2.41905e-05
2.46586e-05
2.55926e-05
2.69491e-05
2.7803e-05
2.77489e-05
2.76041e-05
2.72749e-05
2.69926e-05
2.67642e-05
2.65912e-05
2.64769e-05
2.63865e-05
2.6303e-05
2.62336e-05
2.37139e-05
2.37139e-05
2.37139e-05
2.37139e-05
2.37139e-05
2.37139e-05
2.37139e-05
2.37139e-05
2.37139e-05
2.37139e-05
2.37139e-05
2.37139e-05
2.37139e-05
2.37139e-05
2.37139e-05
2.37139e-05
2.37139e-05
2.37139e-05
2.37139e-05
2.37139e-05
2.37139e-05
2.37139e-05
2.37139e-05
2.37139e-05
2.37139e-05
2.37139e-05
2.37139e-05
2.37139e-05
2.37139e-05
2.3714e-05
2.3714e-05
2.3714e-05
2.37141e-05
2.37142e-05
2.37144e-05
2.37149e-05
2.37158e-05
2.37175e-05
2.37207e-05
2.37266e-05
2.37371e-05
2.37563e-05
2.37919e-05
2.38621e-05
2.40022e-05
2.42823e-05
2.48434e-05
2.592e-05
2.7327e-05
2.77844e-05
2.77242e-05
2.75742e-05
2.72409e-05
2.69223e-05
2.67276e-05
2.65761e-05
2.6464e-05
2.63786e-05
2.62977e-05
2.62283e-05
2.37139e-05
2.37139e-05
2.37139e-05
2.37139e-05
2.37139e-05
2.37139e-05
2.37139e-05
2.37139e-05
2.37139e-05
2.37139e-05
2.37139e-05
2.37139e-05
2.37139e-05
2.37139e-05
2.37139e-05
2.37139e-05
2.37139e-05
2.37139e-05
2.37139e-05
2.37139e-05
2.37139e-05
2.37139e-05
2.37139e-05
2.37139e-05
2.37139e-05
2.37139e-05
2.37139e-05
2.37139e-05
2.37139e-05
2.3714e-05
2.3714e-05
2.3714e-05
2.37141e-05
2.37142e-05
2.37145e-05
2.37151e-05
2.37161e-05
2.37181e-05
2.37218e-05
2.37286e-05
2.37407e-05
2.37629e-05
2.38045e-05
2.38875e-05
2.40532e-05
2.43844e-05
2.50503e-05
2.62461e-05
2.7653e-05
2.77395e-05
2.76794e-05
2.75286e-05
2.72066e-05
2.68767e-05
2.66938e-05
2.6563e-05
2.64555e-05
2.63723e-05
2.6296e-05
2.62269e-05
2.37139e-05
2.37139e-05
2.37139e-05
2.37139e-05
2.37139e-05
2.37139e-05
2.37139e-05
2.37139e-05
2.37139e-05
2.37139e-05
2.37139e-05
2.37139e-05
2.37139e-05
2.37139e-05
2.37139e-05
2.37139e-05
2.37139e-05
2.37139e-05
2.37139e-05
2.37139e-05
2.37139e-05
2.37139e-05
2.37139e-05
2.37139e-05
2.37139e-05
2.37139e-05
2.37139e-05
2.37139e-05
2.3714e-05
2.3714e-05
2.3714e-05
2.3714e-05
2.37141e-05
2.37143e-05
2.37146e-05
2.37153e-05
2.37165e-05
2.37188e-05
2.3723e-05
2.37307e-05
2.37446e-05
2.37699e-05
2.38185e-05
2.39153e-05
2.41088e-05
2.44957e-05
2.52765e-05
2.65639e-05
2.78291e-05
2.77976e-05
2.76289e-05
2.74542e-05
2.71506e-05
2.68473e-05
2.66671e-05
2.65505e-05
2.64499e-05
2.6368e-05
2.62946e-05
2.62265e-05
2.37139e-05
2.37139e-05
2.37139e-05
2.37139e-05
2.37139e-05
2.37139e-05
2.37139e-05
2.37139e-05
2.37139e-05
2.37139e-05
2.37139e-05
2.37139e-05
2.37139e-05
2.37139e-05
2.37139e-05
2.37139e-05
2.37139e-05
2.37139e-05
2.37139e-05
2.37139e-05
2.37139e-05
2.37139e-05
2.37139e-05
2.37139e-05
2.37139e-05
2.37139e-05
2.37139e-05
2.37139e-05
2.3714e-05
2.3714e-05
2.3714e-05
2.37141e-05
2.37142e-05
2.37144e-05
2.37147e-05
2.37155e-05
2.37169e-05
2.37195e-05
2.37243e-05
2.37329e-05
2.37486e-05
2.37775e-05
2.38335e-05
2.39454e-05
2.41689e-05
2.46156e-05
2.55136e-05
2.68725e-05
2.78844e-05
2.78247e-05
2.76614e-05
2.73614e-05
2.70862e-05
2.6824e-05
2.66481e-05
2.6539e-05
2.6446e-05
2.63651e-05
2.62938e-05
2.62266e-05
2.37139e-05
2.37139e-05
2.37139e-05
2.37139e-05
2.37139e-05
2.37139e-05
2.37139e-05
2.37139e-05
2.37139e-05
2.37139e-05
2.37139e-05
2.37139e-05
2.37139e-05
2.37139e-05
2.37139e-05
2.37139e-05
2.37139e-05
2.37139e-05
2.37139e-05
2.37139e-05
2.37139e-05
2.37139e-05
2.37139e-05
2.37139e-05
2.37139e-05
2.37139e-05
2.37139e-05
2.37139e-05
2.3714e-05
2.3714e-05
2.3714e-05
2.37141e-05
2.37142e-05
2.37144e-05
2.37148e-05
2.37157e-05
2.37173e-05
2.37202e-05
2.37256e-05
2.37353e-05
2.37528e-05
2.37854e-05
2.38493e-05
2.39771e-05
2.42324e-05
2.47432e-05
2.57516e-05
2.71619e-05
2.78909e-05
2.78277e-05
2.76687e-05
2.72992e-05
2.70247e-05
2.68014e-05
2.66351e-05
2.65294e-05
2.64429e-05
2.6364e-05
2.62938e-05
2.62284e-05
2.37139e-05
2.37139e-05
2.37139e-05
2.37139e-05
2.37139e-05
2.37139e-05
2.37139e-05
2.37139e-05
2.37139e-05
2.37139e-05
2.37139e-05
2.37139e-05
2.37139e-05
2.37139e-05
2.37139e-05
2.37139e-05
2.37139e-05
2.37139e-05
2.37139e-05
2.37139e-05
2.37139e-05
2.37139e-05
2.37139e-05
2.37139e-05
2.37139e-05
2.37139e-05
2.37139e-05
2.37139e-05
2.3714e-05
2.3714e-05
2.3714e-05
2.37141e-05
2.37142e-05
2.37145e-05
2.3715e-05
2.37159e-05
2.37177e-05
2.37209e-05
2.37269e-05
2.37376e-05
2.37571e-05
2.37936e-05
2.38658e-05
2.40101e-05
2.42985e-05
2.48763e-05
2.59828e-05
2.7417e-05
2.78755e-05
2.78086e-05
2.76428e-05
2.7279e-05
2.69744e-05
2.67788e-05
2.66261e-05
2.65221e-05
2.64405e-05
2.63641e-05
2.62949e-05
2.6231e-05
2.37139e-05
2.37139e-05
2.37139e-05
2.37139e-05
2.37139e-05
2.37139e-05
2.37139e-05
2.37139e-05
2.37139e-05
2.37139e-05
2.37139e-05
2.37139e-05
2.37139e-05
2.37139e-05
2.37139e-05
2.37139e-05
2.37139e-05
2.37139e-05
2.37139e-05
2.37139e-05
2.37139e-05
2.37139e-05
2.37139e-05
2.37139e-05
2.37139e-05
2.37139e-05
2.37139e-05
2.37139e-05
2.3714e-05
2.3714e-05
2.3714e-05
2.37141e-05
2.37143e-05
2.37145e-05
2.37151e-05
2.37161e-05
2.37181e-05
2.37217e-05
2.37282e-05
2.374e-05
2.37614e-05
2.38018e-05
2.38825e-05
2.40437e-05
2.43657e-05
2.50124e-05
2.62008e-05
2.76324e-05
2.78465e-05
2.77817e-05
2.76168e-05
2.72566e-05
2.69376e-05
2.67575e-05
2.66192e-05
2.6517e-05
2.64386e-05
2.63646e-05
2.62968e-05
2.62342e-05
2.37139e-05
2.37139e-05
2.37139e-05
2.37139e-05
2.37139e-05
2.37139e-05
2.37139e-05
2.37139e-05
2.37139e-05
2.37139e-05
2.37139e-05
2.37139e-05
2.37139e-05
2.37139e-05
2.37139e-05
2.37139e-05
2.37139e-05
2.37139e-05
2.37139e-05
2.37139e-05
2.37139e-05
2.37139e-05
2.37139e-05
2.37139e-05
2.37139e-05
2.37139e-05
2.37139e-05
2.3714e-05
2.3714e-05
2.3714e-05
2.3714e-05
2.37141e-05
2.37143e-05
2.37146e-05
2.37152e-05
2.37163e-05
2.37185e-05
2.37224e-05
2.37295e-05
2.37423e-05
2.37657e-05
2.38102e-05
2.38992e-05
2.4077e-05
2.44325e-05
2.51482e-05
2.64026e-05
2.78046e-05
2.78174e-05
2.77517e-05
2.75879e-05
2.7233e-05
2.69117e-05
2.6739e-05
2.66133e-05
2.65137e-05
2.64375e-05
2.63656e-05
2.6299e-05
2.62378e-05
2.37139e-05
2.37139e-05
2.37139e-05
2.37139e-05
2.37139e-05
2.37139e-05
2.37139e-05
2.37139e-05
2.37139e-05
2.37139e-05
2.37139e-05
2.37139e-05
2.37139e-05
2.37139e-05
2.37139e-05
2.37139e-05
2.37139e-05
2.37139e-05
2.37139e-05
2.37139e-05
2.37139e-05
2.37139e-05
2.37139e-05
2.37139e-05
2.37139e-05
2.37139e-05
2.37139e-05
2.3714e-05
2.3714e-05
2.3714e-05
2.3714e-05
2.37141e-05
2.37143e-05
2.37147e-05
2.37153e-05
2.37165e-05
2.37188e-05
2.37231e-05
2.37307e-05
2.37445e-05
2.37698e-05
2.38184e-05
2.39155e-05
2.41096e-05
2.44971e-05
2.52799e-05
2.65861e-05
2.78979e-05
2.78593e-05
2.77102e-05
2.75413e-05
2.72069e-05
2.68936e-05
2.67239e-05
2.66082e-05
2.65116e-05
2.64368e-05
2.6367e-05
2.63014e-05
2.62414e-05
2.37139e-05
2.37139e-05
2.37139e-05
2.37139e-05
2.37139e-05
2.37139e-05
2.37139e-05
2.37139e-05
2.37139e-05
2.37139e-05
2.37139e-05
2.37139e-05
2.37139e-05
2.37139e-05
2.37139e-05
2.37139e-05
2.37139e-05
2.37139e-05
2.37139e-05
2.37139e-05
2.37139e-05
2.37139e-05
2.37139e-05
2.37139e-05
2.37139e-05
2.37139e-05
2.37139e-05
2.3714e-05
2.3714e-05
2.3714e-05
2.37141e-05
2.37142e-05
2.37143e-05
2.37147e-05
2.37154e-05
2.37167e-05
2.37192e-05
2.37237e-05
2.37319e-05
2.37466e-05
2.37737e-05
2.38262e-05
2.3931e-05
2.41404e-05
2.45589e-05
2.54031e-05
2.67503e-05
2.79452e-05
2.78976e-05
2.76999e-05
2.74893e-05
2.71767e-05
2.68805e-05
2.67123e-05
2.66037e-05
2.65105e-05
2.64366e-05
2.63685e-05
2.63039e-05
2.62449e-05
2.37139e-05
2.37139e-05
2.37139e-05
2.37139e-05
2.37139e-05
2.37139e-05
2.37139e-05
2.37139e-05
2.37139e-05
2.37139e-05
2.37139e-05
2.37139e-05
2.37139e-05
2.37139e-05
2.37139e-05
2.37139e-05
2.37139e-05
2.37139e-05
2.37139e-05
2.37139e-05
2.37139e-05
2.37139e-05
2.37139e-05
2.37139e-05
2.37139e-05
2.37139e-05
2.37139e-05
2.3714e-05
2.3714e-05
2.3714e-05
2.37141e-05
2.37142e-05
2.37144e-05
2.37148e-05
2.37155e-05
2.37169e-05
2.37195e-05
2.37243e-05
2.37329e-05
2.37485e-05
2.37772e-05
2.38332e-05
2.39452e-05
2.41688e-05
2.46158e-05
2.55145e-05
2.68933e-05
2.79717e-05
2.79068e-05
2.77137e-05
2.74443e-05
2.71478e-05
2.68703e-05
2.67038e-05
2.66e-05
2.65098e-05
2.64367e-05
2.637e-05
2.63063e-05
2.62481e-05
2.37139e-05
2.37139e-05
2.37139e-05
2.37139e-05
2.37139e-05
2.37139e-05
2.37139e-05
2.37139e-05
2.37139e-05
2.37139e-05
2.37139e-05
2.37139e-05
2.37139e-05
2.37139e-05
2.37139e-05
2.37139e-05
2.37139e-05
2.37139e-05
2.37139e-05
2.37139e-05
2.37139e-05
2.37139e-05
2.37139e-05
2.37139e-05
2.37139e-05
2.37139e-05
2.37139e-05
2.3714e-05
2.3714e-05
2.3714e-05
2.37141e-05
2.37142e-05
2.37144e-05
2.37148e-05
2.37156e-05
2.37171e-05
2.37198e-05
2.37248e-05
2.37339e-05
2.37502e-05
2.37804e-05
2.38395e-05
2.39577e-05
2.41939e-05
2.46662e-05
2.56109e-05
2.70134e-05
2.79838e-05
2.79133e-05
2.77234e-05
2.74086e-05
2.71228e-05
2.68622e-05
2.66977e-05
2.6597e-05
2.65096e-05
2.64369e-05
2.63713e-05
2.63084e-05
2.62509e-05
2.37139e-05
2.37139e-05
2.37139e-05
2.37139e-05
2.37139e-05
2.37139e-05
2.37139e-05
2.37139e-05
2.37139e-05
2.37139e-05
2.37139e-05
2.37139e-05
2.37139e-05
2.37139e-05
2.37139e-05
2.37139e-05
2.37139e-05
2.37139e-05
2.37139e-05
2.37139e-05
2.37139e-05
2.37139e-05
2.37139e-05
2.37139e-05
2.37139e-05
2.37139e-05
2.37139e-05
2.3714e-05
2.3714e-05
2.3714e-05
2.37141e-05
2.37142e-05
2.37144e-05
2.37148e-05
2.37157e-05
2.37172e-05
2.372e-05
2.37252e-05
2.37346e-05
2.37515e-05
2.3783e-05
2.38448e-05
2.39682e-05
2.4215e-05
2.47085e-05
2.56904e-05
2.71096e-05
2.79882e-05
2.79164e-05
2.77296e-05
2.73821e-05
2.71027e-05
2.68558e-05
2.66935e-05
2.65948e-05
2.65096e-05
2.64373e-05
2.63725e-05
2.63102e-05
2.62533e-05
2.37139e-05
2.37139e-05
2.37139e-05
2.37139e-05
2.37139e-05
2.37139e-05
2.37139e-05
2.37139e-05
2.37139e-05
2.37139e-05
2.37139e-05
2.37139e-05
2.37139e-05
2.37139e-05
2.37139e-05
2.37139e-05
2.37139e-05
2.37139e-05
2.37139e-05
2.37139e-05
2.37139e-05
2.37139e-05
2.37139e-05
2.37139e-05
2.37139e-05
2.37139e-05
2.37139e-05
2.3714e-05
2.3714e-05
2.3714e-05
2.37141e-05
2.37142e-05
2.37144e-05
2.37149e-05
2.37157e-05
2.37173e-05
2.37202e-05
2.37256e-05
2.37352e-05
2.37526e-05
2.3785e-05
2.38489e-05
2.39765e-05
2.42315e-05
2.47415e-05
2.57512e-05
2.71815e-05
2.79891e-05
2.79167e-05
2.77334e-05
2.73635e-05
2.70877e-05
2.6851e-05
2.66906e-05
2.65932e-05
2.65096e-05
2.64377e-05
2.63734e-05
2.63117e-05
2.62552e-05
2.37139e-05
2.37139e-05
2.37139e-05
2.37139e-05
2.37139e-05
2.37139e-05
2.37139e-05
2.37139e-05
2.37139e-05
2.37139e-05
2.37139e-05
2.37139e-05
2.37139e-05
2.37139e-05
2.37139e-05
2.37139e-05
2.37139e-05
2.37139e-05
2.37139e-05
2.37139e-05
2.37139e-05
2.37139e-05
2.37139e-05
2.37139e-05
2.37139e-05
2.37139e-05
2.37139e-05
2.3714e-05
2.3714e-05
2.3714e-05
2.37141e-05
2.37142e-05
2.37144e-05
2.37149e-05
2.37157e-05
2.37174e-05
2.37204e-05
2.37258e-05
2.37356e-05
2.37534e-05
2.37864e-05
2.38517e-05
2.39821e-05
2.42427e-05
2.47642e-05
2.57924e-05
2.72296e-05
2.79889e-05
2.79162e-05
2.77355e-05
2.73519e-05
2.70776e-05
2.68476e-05
2.66888e-05
2.65921e-05
2.65096e-05
2.64379e-05
2.6374e-05
2.63126e-05
2.62564e-05
2.37139e-05
2.37139e-05
2.37139e-05
2.37139e-05
2.37139e-05
2.37139e-05
2.37139e-05
2.37139e-05
2.37139e-05
2.37139e-05
2.37139e-05
2.37139e-05
2.37139e-05
2.37139e-05
2.37139e-05
2.37139e-05
2.37139e-05
2.37139e-05
2.37139e-05
2.37139e-05
2.37139e-05
2.37139e-05
2.37139e-05
2.37139e-05
2.37139e-05
2.37139e-05
2.37139e-05
2.3714e-05
2.3714e-05
2.3714e-05
2.37141e-05
2.37142e-05
2.37144e-05
2.37149e-05
2.37158e-05
2.37174e-05
2.37204e-05
2.37259e-05
2.37358e-05
2.37537e-05
2.37871e-05
2.38531e-05
2.39849e-05
2.42484e-05
2.47754e-05
2.58125e-05
2.72522e-05
2.79887e-05
2.79159e-05
2.77363e-05
2.73469e-05
2.70732e-05
2.6846e-05
2.6688e-05
2.65916e-05
2.65096e-05
2.6438e-05
2.63743e-05
2.6313e-05
2.62569e-05
2.37139e-05
2.37139e-05
2.37139e-05
2.37139e-05
2.37139e-05
2.37139e-05
2.37139e-05
2.37139e-05
2.37139e-05
2.37139e-05
2.37139e-05
2.37139e-05
2.37139e-05
2.37139e-05
2.37139e-05
2.37139e-05
2.37139e-05
2.37139e-05
2.37139e-05
2.37139e-05
2.37139e-05
2.37139e-05
2.37139e-05
2.37139e-05
2.37139e-05
2.37139e-05
2.37139e-05
2.3714e-05
2.3714e-05
2.3714e-05
2.37141e-05
2.37142e-05
2.37144e-05
2.37149e-05
2.37158e-05
2.37174e-05
2.37204e-05
2.37259e-05
2.37358e-05
2.37537e-05
2.37871e-05
2.38531e-05
2.39849e-05
2.42483e-05
2.47754e-05
2.58125e-05
2.72522e-05
2.79888e-05
2.7916e-05
2.77363e-05
2.73469e-05
2.70732e-05
2.6846e-05
2.6688e-05
2.65916e-05
2.65095e-05
2.6438e-05
2.63743e-05
2.6313e-05
2.62569e-05
2.37139e-05
2.37139e-05
2.37139e-05
2.37139e-05
2.37139e-05
2.37139e-05
2.37139e-05
2.37139e-05
2.37139e-05
2.37139e-05
2.37139e-05
2.37139e-05
2.37139e-05
2.37139e-05
2.37139e-05
2.37139e-05
2.37139e-05
2.37139e-05
2.37139e-05
2.37139e-05
2.37139e-05
2.37139e-05
2.37139e-05
2.37139e-05
2.37139e-05
2.37139e-05
2.37139e-05
2.3714e-05
2.3714e-05
2.3714e-05
2.37141e-05
2.37142e-05
2.37144e-05
2.37149e-05
2.37157e-05
2.37174e-05
2.37204e-05
2.37258e-05
2.37356e-05
2.37534e-05
2.37864e-05
2.38517e-05
2.39821e-05
2.42427e-05
2.47642e-05
2.57924e-05
2.72296e-05
2.7989e-05
2.79163e-05
2.77355e-05
2.73519e-05
2.70776e-05
2.68476e-05
2.66888e-05
2.65921e-05
2.65095e-05
2.64379e-05
2.6374e-05
2.63126e-05
2.62564e-05
2.37139e-05
2.37139e-05
2.37139e-05
2.37139e-05
2.37139e-05
2.37139e-05
2.37139e-05
2.37139e-05
2.37139e-05
2.37139e-05
2.37139e-05
2.37139e-05
2.37139e-05
2.37139e-05
2.37139e-05
2.37139e-05
2.37139e-05
2.37139e-05
2.37139e-05
2.37139e-05
2.37139e-05
2.37139e-05
2.37139e-05
2.37139e-05
2.37139e-05
2.37139e-05
2.37139e-05
2.3714e-05
2.3714e-05
2.3714e-05
2.37141e-05
2.37142e-05
2.37144e-05
2.37149e-05
2.37157e-05
2.37173e-05
2.37202e-05
2.37256e-05
2.37352e-05
2.37526e-05
2.3785e-05
2.38489e-05
2.39765e-05
2.42314e-05
2.47415e-05
2.57511e-05
2.71815e-05
2.79892e-05
2.79168e-05
2.77334e-05
2.73635e-05
2.70876e-05
2.68509e-05
2.66905e-05
2.65931e-05
2.65095e-05
2.64376e-05
2.63734e-05
2.63116e-05
2.62551e-05
2.37139e-05
2.37139e-05
2.37139e-05
2.37139e-05
2.37139e-05
2.37139e-05
2.37139e-05
2.37139e-05
2.37139e-05
2.37139e-05
2.37139e-05
2.37139e-05
2.37139e-05
2.37139e-05
2.37139e-05
2.37139e-05
2.37139e-05
2.37139e-05
2.37139e-05
2.37139e-05
2.37139e-05
2.37139e-05
2.37139e-05
2.37139e-05
2.37139e-05
2.37139e-05
2.37139e-05
2.3714e-05
2.3714e-05
2.3714e-05
2.37141e-05
2.37142e-05
2.37144e-05
2.37148e-05
2.37157e-05
2.37172e-05
2.372e-05
2.37252e-05
2.37346e-05
2.37515e-05
2.3783e-05
2.38448e-05
2.39682e-05
2.4215e-05
2.47085e-05
2.56903e-05
2.71096e-05
2.79884e-05
2.79165e-05
2.77297e-05
2.73822e-05
2.71026e-05
2.68557e-05
2.66933e-05
2.65947e-05
2.65094e-05
2.64372e-05
2.63724e-05
2.63101e-05
2.62532e-05
2.37139e-05
2.37139e-05
2.37139e-05
2.37139e-05
2.37139e-05
2.37139e-05
2.37139e-05
2.37139e-05
2.37139e-05
2.37139e-05
2.37139e-05
2.37139e-05
2.37139e-05
2.37139e-05
2.37139e-05
2.37139e-05
2.37139e-05
2.37139e-05
2.37139e-05
2.37139e-05
2.37139e-05
2.37139e-05
2.37139e-05
2.37139e-05
2.37139e-05
2.37139e-05
2.37139e-05
2.3714e-05
2.3714e-05
2.3714e-05
2.37141e-05
2.37142e-05
2.37144e-05
2.37148e-05
2.37156e-05
2.37171e-05
2.37198e-05
2.37248e-05
2.37339e-05
2.37502e-05
2.37804e-05
2.38395e-05
2.39577e-05
2.41939e-05
2.46661e-05
2.56109e-05
2.70134e-05
2.7984e-05
2.79135e-05
2.77235e-05
2.74087e-05
2.71227e-05
2.68621e-05
2.66975e-05
2.65969e-05
2.65094e-05
2.64368e-05
2.63712e-05
2.63083e-05
2.62508e-05
2.37139e-05
2.37139e-05
2.37139e-05
2.37139e-05
2.37139e-05
2.37139e-05
2.37139e-05
2.37139e-05
2.37139e-05
2.37139e-05
2.37139e-05
2.37139e-05
2.37139e-05
2.37139e-05
2.37139e-05
2.37139e-05
2.37139e-05
2.37139e-05
2.37139e-05
2.37139e-05
2.37139e-05
2.37139e-05
2.37139e-05
2.37139e-05
2.37139e-05
2.37139e-05
2.37139e-05
2.3714e-05
2.3714e-05
2.3714e-05
2.37141e-05
2.37142e-05
2.37144e-05
2.37148e-05
2.37155e-05
2.37169e-05
2.37195e-05
2.37243e-05
2.37329e-05
2.37485e-05
2.37772e-05
2.38332e-05
2.39451e-05
2.41688e-05
2.46157e-05
2.55144e-05
2.68932e-05
2.79719e-05
2.7907e-05
2.77138e-05
2.74443e-05
2.71478e-05
2.68702e-05
2.67036e-05
2.65998e-05
2.65097e-05
2.64365e-05
2.63698e-05
2.63062e-05
2.6248e-05
2.37139e-05
2.37139e-05
2.37139e-05