/*--------------------------------*- C++ -*----------------------------------*\
  =========                 |
  \\      /  F ield         | OpenFOAM: The Open Source CFD Toolbox
   \\    /   O peration     | Website:  https://openfoam.org
    \\  /    A nd           | Version:  9
     \\/     M anipulation  |
\*---------------------------------------------------------------------------*/
FoamFile
{
    format      ascii;
    class       volScalarField;
    location    "0.005";
    object      T;
}
// * * * * * * * * * * * * * * * * * * * * * * * * * * * * * * * * * * * * * //

dimensions      [0 0 0 1 0 0 0];

internalField   nonuniform List<scalar> 
36400
(
293.15
293.15
293.15
293.15
293.15
293.15
293.15
293.15
293.15
293.15
293.15
293.15
293.15
293.15
293.15
293.15
293.15
293.15
293.15
293.15
293.15
293.15
293.15
293.15
293.15
293.15
293.15
293.15
293.15
293.15
293.15
293.15
293.15
293.15
293.15
293.15
293.15
293.15
293.15
293.151
293.151
293.152
293.154
293.158
293.166
293.181
293.21
293.265
293.367
293.554
293.91
294.615
296.015
298.773
303.858
311.162
317.408
316.991
316.506
315.728
293.15
293.15
293.15
293.15
293.15
293.15
293.15
293.15
293.15
293.15
293.15
293.15
293.15
293.15
293.15
293.15
293.15
293.15
293.15
293.15
293.15
293.15
293.15
293.15
293.15
293.15
293.15
293.15
293.15
293.15
293.15
293.15
293.15
293.15
293.15
293.15
293.15
293.15
293.15
293.151
293.151
293.153
293.155
293.161
293.171
293.191
293.228
293.298
293.427
293.668
294.137
295.071
296.918
300.486
306.394
313.396
316.273
316.1
316.046
315.904
293.15
293.15
293.15
293.15
293.15
293.15
293.15
293.15
293.15
293.15
293.15
293.15
293.15
293.15
293.15
293.15
293.15
293.15
293.15
293.15
293.15
293.15
293.15
293.15
293.15
293.15
293.15
293.15
293.15
293.15
293.15
293.15
293.15
293.15
293.15
293.15
293.15
293.15
293.151
293.151
293.152
293.154
293.157
293.165
293.179
293.205
293.254
293.346
293.514
293.832
294.463
295.715
298.17
302.671
308.803
313.599
314.665
314.993
315.431
315.689
293.15
293.15
293.15
293.15
293.15
293.15
293.15
293.15
293.15
293.15
293.15
293.15
293.15
293.15
293.15
293.15
293.15
293.15
293.15
293.15
293.15
293.15
293.15
293.15
293.15
293.15
293.15
293.15
293.15
293.15
293.15
293.15
293.15
293.15
293.15
293.15
293.15
293.15
293.151
293.151
293.153
293.155
293.16
293.17
293.189
293.225
293.29
293.411
293.636
294.069
294.935
296.648
299.935
305.235
311.282
312.85
313.129
313.648
314.308
315.021
293.15
293.15
293.15
293.15
293.15
293.15
293.15
293.15
293.15
293.15
293.15
293.15
293.15
293.15
293.15
293.15
293.15
293.15
293.15
293.15
293.15
293.15
293.15
293.15
293.15
293.15
293.15
293.15
293.15
293.15
293.15
293.15
293.15
293.15
293.15
293.15
293.15
293.151
293.151
293.152
293.154
293.157
293.164
293.178
293.204
293.251
293.339
293.5
293.804
294.406
295.6
297.944
302.212
307.857
311.739
311.973
312.146
312.427
312.953
313.893
293.15
293.15
293.15
293.15
293.15
293.15
293.15
293.15
293.15
293.15
293.15
293.15
293.15
293.15
293.15
293.15
293.15
293.15
293.15
293.15
293.15
293.15
293.15
293.15
293.15
293.15
293.15
293.15
293.15
293.15
293.15
293.15
293.15
293.15
293.15
293.15
293.15
293.151
293.151
293.153
293.155
293.16
293.17
293.188
293.223
293.286
293.403
293.618
294.035
294.867
296.513
299.678
304.777
310.463
311.208
311.283
311.288
311.357
311.606
312.354
293.15
293.15
293.15
293.15
293.15
293.15
293.15
293.15
293.15
293.15
293.15
293.15
293.15
293.15
293.15
293.15
293.15
293.15
293.15
293.15
293.15
293.15
293.15
293.15
293.15
293.15
293.15
293.15
293.15
293.15
293.15
293.15
293.15
293.15
293.15
293.15
293.151
293.151
293.152
293.154
293.157
293.164
293.177
293.202
293.248
293.331
293.485
293.776
294.351
295.493
297.738
301.866
307.365
311.167
310.871
310.655
310.389
310.2
310.327
310.828
293.15
293.15
293.15
293.15
293.15
293.15
293.15
293.15
293.15
293.15
293.15
293.15
293.15
293.15
293.15
293.15
293.15
293.15
293.15
293.15
293.15
293.15
293.15
293.15
293.15
293.15
293.15
293.15
293.15
293.15
293.15
293.15
293.15
293.15
293.15
293.15
293.151
293.151
293.153
293.155
293.16
293.169
293.187
293.219
293.279
293.389
293.593
293.986
294.771
296.325
299.332
304.332
309.96
310.731
310.637
310.248
309.544
309.011
309.114
309.523
293.15
293.15
293.15
293.15
293.15
293.15
293.15
293.15
293.15
293.15
293.15
293.15
293.15
293.15
293.15
293.15
293.15
293.15
293.15
293.15
293.15
293.15
293.15
293.15
293.15
293.15
293.15
293.15
293.15
293.15
293.15
293.15
293.15
293.15
293.15
293.151
293.151
293.152
293.154
293.157
293.163
293.176
293.199
293.241
293.319
293.462
293.732
294.265
295.324
297.412
301.321
306.82
311.263
310.759
310.412
309.829
308.727
308.122
308.183
308.343
293.15
293.15
293.15
293.15
293.15
293.15
293.15
293.15
293.15
293.15
293.15
293.15
293.15
293.15
293.15
293.15
293.15
293.15
293.15
293.15
293.15
293.15
293.15
293.15
293.15
293.15
293.15
293.15
293.15
293.15
293.15
293.15
293.15
293.15
293.15
293.151
293.151
293.152
293.155
293.159
293.168
293.184
293.214
293.269
293.369
293.554
293.911
294.624
296.039
298.796
303.611
309.216
310.975
310.832
310.291
309.259
308.087
307.512
307.35
307.456
293.15
293.15
293.15
293.15
293.15
293.15
293.15
293.15
293.15
293.15
293.15
293.15
293.15
293.15
293.15
293.15
293.15
293.15
293.15
293.15
293.15
293.15
293.15
293.15
293.15
293.15
293.15
293.15
293.15
293.15
293.15
293.15
293.15
293.15
293.15
293.151
293.152
293.153
293.156
293.162
293.173
293.194
293.232
293.302
293.43
293.67
294.144
295.086
296.95
300.505
305.967
311.275
310.853
310.598
309.947
308.768
307.671
307.049
306.801
306.792
293.15
293.15
293.15
293.15
293.15
293.15
293.15
293.15
293.15
293.15
293.15
293.15
293.15
293.15
293.15
293.15
293.15
293.15
293.15
293.15
293.15
293.15
293.15
293.15
293.15
293.15
293.15
293.15
293.15
293.15
293.15
293.15
293.15
293.15
293.151
293.151
293.152
293.154
293.158
293.166
293.18
293.206
293.254
293.342
293.504
293.816
294.436
295.668
298.088
302.521
308.241
311.535
311.229
310.592
309.464
308.205
307.335
306.739
306.417
306.313
293.15
293.15
293.15
293.15
293.15
293.15
293.15
293.15
293.15
293.15
293.15
293.15
293.15
293.15
293.15
293.15
293.15
293.15
293.15
293.15
293.15
293.15
293.15
293.15
293.15
293.15
293.15
293.15
293.15
293.15
293.15
293.15
293.15
293.15
293.151
293.151
293.153
293.155
293.16
293.17
293.188
293.221
293.281
293.391
293.596
293.999
294.801
296.391
299.474
304.686
310.331
311.245
311.064
310.406
309.153
307.794
307.022
306.506
306.139
305.946
293.15
293.15
293.15
293.15
293.15
293.15
293.15
293.15
293.15
293.15
293.15
293.15
293.15
293.15
293.15
293.15
293.15
293.15
293.15
293.15
293.15
293.15
293.15
293.15
293.15
293.15
293.15
293.15
293.15
293.15
293.15
293.15
293.15
293.151
293.151
293.152
293.154
293.157
293.163
293.175
293.197
293.238
293.313
293.449
293.708
294.224
295.25
297.275
301.116
306.827
311.88
311.19
310.85
310.08
308.764
307.555
306.778
306.305
305.938
305.674
293.15
293.15
293.15
293.15
293.15
293.15
293.15
293.15
293.15
293.15
293.15
293.15
293.15
293.15
293.15
293.15
293.15
293.15
293.15
293.15
293.15
293.15
293.15
293.15
293.15
293.15
293.15
293.15
293.15
293.15
293.15
293.15
293.15
293.151
293.151
293.152
293.154
293.159
293.166
293.181
293.209
293.259
293.35
293.518
293.844
294.496
295.792
298.334
302.967
308.841
311.945
311.608
310.898
309.537
308.292
307.349
306.621
306.142
305.783
305.481
293.15
293.15
293.15
293.15
293.15
293.15
293.15
293.15
293.15
293.15
293.15
293.15
293.15
293.15
293.15
293.15
293.15
293.15
293.15
293.15
293.15
293.15
293.15
293.15
293.15
293.15
293.15
293.15
293.15
293.15
293.15
293.15
293.15
293.151
293.152
293.153
293.156
293.161
293.17
293.188
293.222
293.282
293.393
293.6
294.009
294.824
296.439
299.573
304.899
310.625
311.687
311.485
310.734
309.317
307.926
307.13
306.51
306.026
305.661
305.338
293.15
293.15
293.15
293.15
293.15
293.15
293.15
293.15
293.15
293.15
293.15
293.15
293.15
293.15
293.15
293.15
293.15
293.15
293.15
293.15
293.15
293.15
293.15
293.15
293.15
293.15
293.15
293.15
293.15
293.15
293.15
293.15
293.151
293.151
293.152
293.154
293.157
293.163
293.175
293.197
293.237
293.309
293.442
293.696
294.202
295.209
297.198
300.989
306.786
312.047
311.503
311.191
310.434
309.098
307.726
306.939
306.409
305.949
305.57
305.238
293.15
293.15
293.15
293.15
293.15
293.15
293.15
293.15
293.15
293.15
293.15
293.15
293.15
293.15
293.15
293.15
293.15
293.15
293.15
293.15
293.15
293.15
293.15
293.15
293.15
293.15
293.15
293.15
293.15
293.15
293.15
293.15
293.151
293.151
293.152
293.154
293.158
293.166
293.18
293.206
293.253
293.339
293.499
293.808
294.426
295.654
298.072
302.55
308.548
312.397
311.934
311.058
309.964
308.715
307.595
306.811
306.315
305.893
305.509
305.177
293.15
293.15
293.15
293.15
293.15
293.15
293.15
293.15
293.15
293.15
293.15
293.15
293.15
293.15
293.15
293.15
293.15
293.15
293.15
293.15
293.15
293.15
293.15
293.15
293.15
293.15
293.15
293.15
293.15
293.15
293.15
293.15
293.151
293.151
293.153
293.155
293.16
293.169
293.186
293.216
293.272
293.373
293.563
293.938
294.684
296.164
299.056
304.174
310.137
312.248
311.976
311.134
309.569
308.331
307.454
306.735
306.24
305.848
305.471
305.135
293.15
293.15
293.15
293.15
293.15
293.15
293.15
293.15
293.15
293.15
293.15
293.15
293.15
293.15
293.15
293.15
293.15
293.15
293.15
293.15
293.15
293.15
293.15
293.15
293.15
293.15
293.15
293.15
293.15
293.15
293.15
293.151
293.151
293.152
293.153
293.156
293.162
293.172
293.192
293.227
293.292
293.411
293.636
294.083
294.974
296.738
300.147
305.772
311.466
312.02
311.79
310.966
309.434
308.056
307.297
306.679
306.189
305.81
305.447
305.11
293.15
293.15
293.15
293.15
293.15
293.15
293.15
293.15
293.15
293.15
293.15
293.15
293.15
293.15
293.15
293.15
293.15
293.15
293.15
293.15
293.15
293.15
293.15
293.15
293.15
293.15
293.15
293.15
293.15
293.15
293.15
293.151
293.151
293.152
293.154
293.157
293.164
293.176
293.199
293.24
293.314
293.452
293.716
294.245
295.296
297.373
301.321
307.283
312.463
311.841
311.514
310.725
309.285
307.898
307.156
306.626
306.157
305.782
305.438
305.102
293.15
293.15
293.15
293.15
293.15
293.15
293.15
293.15
293.15
293.15
293.15
293.15
293.15
293.15
293.15
293.15
293.15
293.15
293.15
293.15
293.15
293.15
293.15
293.15
293.15
293.15
293.15
293.15
293.15
293.15
293.15
293.151
293.151
293.152
293.154
293.158
293.166
293.18
293.206
293.253
293.338
293.496
293.805
294.421
295.646
298.06
302.55
308.665
312.769
312.188
311.265
310.34
309.035
307.805
307.051
306.572
306.136
305.764
305.43
305.098
293.15
293.15
293.15
293.15
293.15
293.15
293.15
293.15
293.15
293.15
293.15
293.15
293.15
293.15
293.15
293.15
293.15
293.15
293.15
293.15
293.15
293.15
293.15
293.15
293.15
293.15
293.15
293.15
293.15
293.15
293.15
293.151
293.151
293.153
293.155
293.16
293.168
293.184
293.213
293.266
293.363
293.544
293.9
294.611
296.023
298.79
303.784
309.905
312.708
312.307
311.394
309.912
308.749
307.722
306.983
306.522
306.12
305.753
305.425
305.099
293.15
293.15
293.15
293.15
293.15
293.15
293.15
293.15
293.15
293.15
293.15
293.15
293.15
293.15
293.15
293.15
293.15
293.15
293.15
293.15
293.15
293.15
293.15
293.15
293.15
293.15
293.15
293.15
293.15
293.15
293.151
293.151
293.152
293.153
293.156
293.161
293.171
293.188
293.221
293.28
293.389
293.594
294.001
294.812
296.421
299.553
304.974
310.977
312.561
312.285
311.392
309.659
308.483
307.632
306.939
306.483
306.107
305.749
305.425
305.108
293.15
293.15
293.15
293.15
293.15
293.15
293.15
293.15
293.15
293.15
293.15
293.15
293.15
293.15
293.15
293.15
293.15
293.15
293.15
293.15
293.15
293.15
293.15
293.15
293.15
293.15
293.15
293.15
293.15
293.15
293.151
293.151
293.152
293.153
293.156
293.162
293.173
293.193
293.229
293.295
293.415
293.646
294.105
295.021
296.833
300.331
306.088
311.85
312.408
312.148
311.253
309.59
308.28
307.536
306.909
306.454
306.097
305.75
305.43
305.12
293.15
293.15
293.15
293.15
293.15
293.15
293.15
293.15
293.15
293.15
293.15
293.15
293.15
293.15
293.15
293.15
293.15
293.15
293.15
293.15
293.15
293.15
293.15
293.15
293.15
293.15
293.15
293.15
293.15
293.15
293.151
293.151
293.152
293.154
293.157
293.163
293.175
293.197
293.237
293.309
293.442
293.699
294.211
295.232
297.25
301.106
307.102
312.528
312.257
311.978
311.115
309.502
308.144
307.445
306.885
306.436
306.089
305.753
305.439
305.136
293.15
293.15
293.15
293.15
293.15
293.15
293.15
293.15
293.15
293.15
293.15
293.15
293.15
293.15
293.15
293.15
293.15
293.15
293.15
293.15
293.15
293.15
293.15
293.15
293.15
293.15
293.15
293.15
293.15
293.15
293.151
293.151
293.152
293.154
293.158
293.165
293.178
293.202
293.245
293.323
293.469
293.752
294.317
295.442
297.663
301.859
308.007
312.995
312.178
311.798
310.957
309.405
308.057
307.368
306.862
306.425
306.084
305.758
305.449
305.154
293.15
293.15
293.15
293.15
293.15
293.15
293.15
293.15
293.15
293.15
293.15
293.15
293.15
293.15
293.15
293.15
293.15
293.15
293.15
293.15
293.15
293.15
293.15
293.15
293.15
293.15
293.15
293.15
293.15
293.15
293.151
293.151
293.152
293.154
293.158
293.166
293.18
293.206
293.252
293.337
293.495
293.804
294.421
295.647
298.061
302.57
308.798
313.144
312.414
311.594
310.716
309.294
308.001
307.308
306.841
306.419
306.081
305.765
305.461
305.171
293.15
293.15
293.15
293.15
293.15
293.15
293.15
293.15
293.15
293.15
293.15
293.15
293.15
293.15
293.15
293.15
293.15
293.15
293.15
293.15
293.15
293.15
293.15
293.15
293.15
293.15
293.15
293.15
293.15
293.15
293.151
293.151
293.153
293.155
293.159
293.167
293.182
293.21
293.259
293.35
293.519
293.853
294.518
295.84
298.438
303.22
309.476
313.161
312.602
311.54
310.462
309.162
307.961
307.264
306.822
306.416
306.08
305.772
305.472
305.188
293.15
293.15
293.15
293.15
293.15
293.15
293.15
293.15
293.15
293.15
293.15
293.15
293.15
293.15
293.15
293.15
293.15
293.15
293.15
293.15
293.15
293.15
293.15
293.15
293.15
293.15
293.15
293.15
293.15
293.151
293.151
293.152
293.153
293.155
293.16
293.168
293.184
293.213
293.266
293.361
293.542
293.898
294.608
296.018
298.783
303.796
310.044
313.14
312.645
311.593
310.252
309.035
307.929
307.233
306.806
306.415
306.081
305.778
305.483
305.204
293.15
293.15
293.15
293.15
293.15
293.15
293.15
293.15
293.15
293.15
293.15
293.15
293.15
293.15
293.15
293.15
293.15
293.15
293.15
293.15
293.15
293.15
293.15
293.15
293.15
293.15
293.15
293.15
293.15
293.151
293.151
293.152
293.153
293.155
293.16
293.169
293.186
293.216
293.271
293.372
293.562
293.938
294.687
296.175
299.086
304.287
310.505
313.096
312.669
311.628
310.093
308.926
307.901
307.212
306.794
306.415
306.082
305.784
305.493
305.218
293.15
293.15
293.15
293.15
293.15
293.15
293.15
293.15
293.15
293.15
293.15
293.15
293.15
293.15
293.15
293.15
293.15
293.15
293.15
293.15
293.15
293.15
293.15
293.15
293.15
293.15
293.15
293.15
293.15
293.151
293.151
293.152
293.153
293.156
293.161
293.17
293.187
293.219
293.276
293.38
293.578
293.971
294.754
296.307
299.34
304.685
310.864
313.05
312.673
311.648
309.979
308.838
307.879
307.198
306.784
306.415
306.084
305.789
305.501
305.229
293.15
293.15
293.15
293.15
293.15
293.15
293.15
293.15
293.15
293.15
293.15
293.15
293.15
293.15
293.15
293.15
293.15
293.15
293.15
293.15
293.15
293.15
293.15
293.15
293.15
293.15
293.15
293.15
293.15
293.151
293.151
293.152
293.153
293.156
293.161
293.171
293.189
293.221
293.28
293.387
293.591
293.997
294.805
296.41
299.536
304.986
311.126
313.011
312.665
311.659
309.902
308.773
307.861
307.189
306.777
306.415
306.086
305.793
305.508
305.238
293.15
293.15
293.15
293.15
293.15
293.15
293.15
293.15
293.15
293.15
293.15
293.15
293.15
293.15
293.15
293.15
293.15
293.15
293.15
293.15
293.15
293.15
293.15
293.15
293.15
293.15
293.15
293.15
293.15
293.151
293.151
293.152
293.153
293.156
293.161
293.171
293.189
293.222
293.282
293.392
293.6
294.015
294.841
296.48
299.67
305.189
311.298
312.985
312.655
311.663
309.854
308.73
307.848
307.184
306.773
306.416
306.088
305.796
305.512
305.244
293.15
293.15
293.15
293.15
293.15
293.15
293.15
293.15
293.15
293.15
293.15
293.15
293.15
293.15
293.15
293.15
293.15
293.15
293.15
293.15
293.15
293.15
293.15
293.15
293.15
293.15
293.15
293.15
293.15
293.151
293.151
293.152
293.153
293.156
293.161
293.171
293.19
293.223
293.283
293.394
293.605
294.024
294.859
296.515
299.736
305.288
311.38
312.975
312.651
311.664
309.833
308.71
307.841
307.18
306.771
306.415
306.088
305.797
305.514
305.247
293.15
293.15
293.15
293.15
293.15
293.15
293.15
293.15
293.15
293.15
293.15
293.15
293.15
293.15
293.15
293.15
293.15
293.15
293.15
293.15
293.15
293.15
293.15
293.15
293.15
293.15
293.15
293.15
293.15
293.151
293.151
293.152
293.153
293.156
293.161
293.171
293.19
293.223
293.283
293.394
293.605
294.024
294.859
296.515
299.736
305.288
311.38
312.975
312.651
311.664
309.833
308.71
307.841
307.18
306.77
306.415
306.088
305.797
305.514
305.247
293.15
293.15
293.15
293.15
293.15
293.15
293.15
293.15
293.15
293.15
293.15
293.15
293.15
293.15
293.15
293.15
293.15
293.15
293.15
293.15
293.15
293.15
293.15
293.15
293.15
293.15
293.15
293.15
293.15
293.151
293.151
293.152
293.153
293.156
293.161
293.171
293.189
293.222
293.282
293.392
293.6
294.015
294.841
296.48
299.669
305.189
311.298
312.985
312.655
311.663
309.854
308.73
307.848
307.183
306.773
306.415
306.087
305.796
305.512
305.244
293.15
293.15
293.15
293.15
293.15
293.15
293.15
293.15
293.15
293.15
293.15
293.15
293.15
293.15
293.15
293.15
293.15
293.15
293.15
293.15
293.15
293.15
293.15
293.15
293.15
293.15
293.15
293.15
293.15
293.151
293.151
293.152
293.153
293.156
293.161
293.171
293.189
293.221
293.28
293.387
293.591
293.997
294.805
296.41
299.535
304.986
311.127
313.012
312.665
311.659
309.902
308.773
307.861
307.188
306.777
306.415
306.086
305.793
305.508
305.238
293.15
293.15
293.15
293.15
293.15
293.15
293.15
293.15
293.15
293.15
293.15
293.15
293.15
293.15
293.15
293.15
293.15
293.15
293.15
293.15
293.15
293.15
293.15
293.15
293.15
293.15
293.15
293.15
293.15
293.151
293.151
293.152
293.153
293.156
293.161
293.17
293.187
293.219
293.276
293.38
293.578
293.971
294.754
296.307
299.339
304.685
310.864
313.051
312.674
311.648
309.979
308.838
307.878
307.197
306.783
306.414
306.084
305.789
305.501
305.229
293.15
293.15
293.15
293.15
293.15
293.15
293.15
293.15
293.15
293.15
293.15
293.15
293.15
293.15
293.15
293.15
293.15
293.15
293.15
293.15
293.15
293.15
293.15
293.15
293.15
293.15
293.15
293.15
293.15
293.151
293.151
293.152
293.153
293.155
293.16
293.169
293.186
293.216
293.271
293.372
293.562
293.938
294.687
296.175
299.086
304.287
310.505
313.097
312.67
311.629
310.093
308.925
307.901
307.211
306.793
306.414
306.082
305.784
305.493
305.218
293.15
293.15
293.15
293.15
293.15
293.15
293.15
293.15
293.15
293.15
293.15
293.15
293.15
293.15
293.15
293.15
293.15
293.15
293.15
293.15
293.15
293.15
293.15
293.15
293.15
293.15
293.15
293.15
293.15
293.151
293.151
293.151
293.153
293.155
293.16
293.168
293.184
293.213
293.266
293.361
293.542
293.898
294.608
296.018
298.783
303.796
310.044
313.141
312.646
311.594
310.252
309.035
307.928
307.232
306.806
306.414
306.08
305.778
305.483
305.204
293.15
293.15
293.15
293.15
293.15
293.15
293.15
293.15
293.15
293.15
293.15
293.15
293.15
293.15
293.15
293.15
293.15
293.15
293.15
293.15
293.15
293.15
293.15
293.15
293.15
293.15
293.15
293.15
293.15
293.15
293.151
293.151
293.153
293.155
293.159
293.167
293.182
293.21
293.259
293.35
293.519
293.853
294.518
295.84
298.438
303.22
309.476
313.162
312.603
311.54
310.462
309.162
307.96
307.263
306.822
306.415
306.08
305.771
305.472
305.188
293.15
293.15
293.15
293.15
293.15
293.15
293.15
293.15
293.15
293.15
293.15
293.15
293.15
293.15
293.15
293.15
293.15
293.15
293.15
293.15
293.15
293.15
293.15
293.15
293.15
293.15
293.15
293.15
293.15
293.15
293.151
293.151
293.152
293.154
293.158
293.166
293.18
293.206
293.252
293.337
293.495
293.804
294.42
295.647
298.061
302.569
308.798
313.145
312.414
311.594
310.716
309.294
308
307.307
306.84
306.418
306.08
305.764
305.46
305.171
293.15
293.15
293.15
293.15
293.15
293.15
293.15
293.15
293.15
293.15
293.15
293.15
293.15
293.15
293.15
293.15
293.15
293.15
293.15
293.15
293.15
293.15
293.15
293.15
293.15
293.15
293.15
293.15
293.15
293.15
293.151
293.151
293.152
293.154
293.158
293.165
293.178
293.202
293.245
293.323
293.469
293.752
294.317
295.442
297.662
301.858
308.007
312.995
312.178
311.798
310.957
309.405
308.057
307.368
306.862
306.424
306.083
305.758
305.449
305.153
293.15
293.15
293.15
293.15
293.15
293.15
293.15
293.15
293.15
293.15
293.15
293.15
293.15
293.15
293.15
293.15
293.15
293.15
293.15
293.15
293.15
293.15
293.15
293.15
293.15
293.15
293.15
293.15
293.15
293.15
293.151
293.151
293.152
293.154
293.157
293.163
293.175
293.197
293.237
293.309
293.442
293.698
294.211
295.232
297.25
301.106
307.101
312.529
312.258
311.978
311.115
309.501
308.144
307.445
306.884
306.435
306.088
305.753
305.438
305.136
293.15
293.15
293.15
293.15
293.15
293.15
293.15
293.15
293.15
293.15
293.15
293.15
293.15
293.15
293.15
293.15
293.15
293.15
293.15
293.15
293.15
293.15
293.15
293.15
293.15
293.15
293.15
293.15
293.15
293.15
293.151
293.151
293.152
293.153
293.156
293.162
293.173
293.193
293.229
293.295
293.415
293.646
294.105
295.02
296.833
300.331
306.088
311.85
312.408
312.148
311.253
309.59
308.28
307.536
306.909
306.454
306.096
305.75
305.43
305.12
293.15
293.15
293.15
293.15
293.15
293.15
293.15
293.15
293.15
293.15
293.15
293.15
293.15
293.15
293.15
293.15
293.15
293.15
293.15
293.15
293.15
293.15
293.15
293.15
293.15
293.15
293.15
293.15
293.15
293.15
293.151
293.151
293.152
293.153
293.156
293.161
293.171
293.188
293.221
293.28
293.389
293.594
294.001
294.812
296.421
299.553
304.974
310.977
312.561
312.285
311.392
309.658
308.483
307.631
306.939
306.482
306.107
305.749
305.424
305.108
293.15
293.15
293.15
293.15
293.15
293.15
293.15
293.15
293.15
293.15
293.15
293.15
293.15
293.15
293.15
293.15
293.15
293.15
293.15
293.15
293.15
293.15
293.15
293.15
293.15
293.15
293.15
293.15
293.15
293.15
293.15
293.151
293.151
293.153
293.155
293.16
293.168
293.184
293.213
293.266
293.363
293.544
293.9
294.611
296.023
298.79
303.783
309.905
312.708
312.307
311.394
309.912
308.749
307.722
306.982
306.522
306.12
305.752
305.425
305.099
293.15
293.15
293.15
293.15
293.15
293.15
293.15
293.15
293.15
293.15
293.15
293.15
293.15
293.15
293.15
293.15
293.15
293.15
293.15
293.15
293.15
293.15
293.15
293.15
293.15
293.15
293.15
293.15
293.15
293.15
293.15
293.151
293.151
293.152
293.154
293.158
293.166
293.18
293.206
293.253
293.338
293.496
293.805
294.421
295.646
298.059
302.55
308.665
312.769
312.188
311.264
310.339
309.034
307.804
307.051
306.572
306.136
305.764
305.43
305.098
293.15
293.15
293.15
293.15
293.15
293.15
293.15
293.15
293.15
293.15
293.15
293.15
293.15
293.15
293.15
293.15
293.15
293.15
293.15
293.15
293.15
293.15
293.15
293.15
293.15
293.15
293.15
293.15
293.15
293.15
293.15
293.151
293.151
293.152
293.154
293.157
293.164
293.176
293.199
293.24
293.314
293.452
293.716
294.245
295.296
297.373
301.321
307.282
312.463
311.84
311.513
310.725
309.284
307.898
307.155
306.626
306.157
305.782
305.438
305.102
293.15
293.15
293.15
293.15
293.15
293.15
293.15
293.15
293.15
293.15
293.15
293.15
293.15
293.15
293.15
293.15
293.15
293.15
293.15
293.15
293.15
293.15
293.15
293.15
293.15
293.15
293.15
293.15
293.15
293.15
293.15
293.151
293.151
293.152
293.153
293.156
293.162
293.172
293.192
293.227
293.292
293.411
293.636
294.083
294.974
296.738
300.147
305.772
311.465
312.019
311.789
310.966
309.434
308.055
307.297
306.68
306.189
305.811
305.447
305.11
293.15
293.15
293.15
293.15
293.15
293.15
293.15
293.15
293.15
293.15
293.15
293.15
293.15
293.15
293.15
293.15
293.15
293.15
293.15
293.15
293.15
293.15
293.15
293.15
293.15
293.15
293.15
293.15
293.15
293.15
293.15
293.15
293.151
293.151
293.153
293.155
293.16
293.169
293.186
293.216
293.272
293.373
293.563
293.938
294.684
296.164
299.057
304.174
310.137
312.247
311.974
311.133
309.568
308.331
307.454
306.735
306.24
305.848
305.472
305.136
293.15
293.15
293.15
293.15
293.15
293.15
293.15
293.15
293.15
293.15
293.15
293.15
293.15
293.15
293.15
293.15
293.15
293.15
293.15
293.15
293.15
293.15
293.15
293.15
293.15
293.15
293.15
293.15
293.15
293.15
293.15
293.15
293.151
293.151
293.152
293.154
293.158
293.166
293.18
293.206
293.253
293.339
293.499
293.808
294.426
295.654
298.072
302.55
308.548
312.396
311.932
311.057
309.963
308.715
307.595
306.811
306.316
305.893
305.509
305.177
293.15
293.15
293.15
293.15
293.15
293.15
293.15
293.15
293.15
293.15
293.15
293.15
293.15
293.15
293.15
293.15
293.15
293.15
293.15
293.15
293.15
293.15
293.15
293.15
293.15
293.15
293.15
293.15
293.15
293.15
293.15
293.15
293.151
293.151
293.152
293.154
293.157
293.163
293.175
293.197
293.237
293.309
293.442
293.696
294.202
295.209
297.198
300.989
306.786
312.046
311.501
311.19
310.433
309.098
307.726
306.939
306.41
305.949
305.571
305.238
293.15
293.15
293.15
293.15
293.15
293.15
293.15
293.15
293.15
293.15
293.15
293.15
293.15
293.15
293.15
293.15
293.15
293.15
293.15
293.15
293.15
293.15
293.15
293.15
293.15
293.15
293.15
293.15
293.15
293.15
293.15
293.15
293.15
293.151
293.152
293.153
293.156
293.161
293.17
293.188
293.222
293.282
293.393
293.6
294.009
294.824
296.439
299.573
304.899
310.624
311.686
311.484
310.733
309.317
307.926
307.13
306.511
306.027
305.662
305.339
293.15
293.15
293.15
293.15
293.15
293.15
293.15
293.15
293.15
293.15
293.15
293.15
293.15
293.15
293.15
293.15
293.15
293.15
293.15
293.15
293.15
293.15
293.15
293.15
293.15
293.15
293.15
293.15
293.15
293.15
293.15
293.15
293.15
293.151
293.151
293.152
293.154
293.159
293.166
293.181
293.209
293.259
293.35
293.518
293.844
294.496
295.792
298.334
302.967
308.84
311.943
311.606
310.897
309.537
308.292
307.35
306.621
306.143
305.783
305.482
293.15
293.15
293.15
293.15
293.15
293.15
293.15
293.15
293.15
293.15
293.15
293.15
293.15
293.15
293.15
293.15
293.15
293.15
293.15
293.15
293.15
293.15
293.15
293.15
293.15
293.15
293.15
293.15
293.15
293.15
293.15
293.15
293.15
293.151
293.151
293.152
293.154
293.157
293.163
293.175
293.197
293.238
293.313
293.449
293.708
294.224
295.25
297.275
301.116
306.826
311.878
311.189
310.849
310.079
308.764
307.556
306.778
306.306
305.938
305.675
293.15
293.15
293.15
293.15
293.15
293.15
293.15
293.15
293.15
293.15
293.15
293.15
293.15
293.15
293.15
293.15
293.15
293.15
293.15
293.15
293.15
293.15
293.15
293.15
293.15
293.15
293.15
293.15
293.15
293.15
293.15
293.15
293.15
293.15
293.151
293.151
293.153
293.155
293.16
293.17
293.188
293.221
293.281
293.391
293.596
293.999
294.801
296.391
299.474
304.685
310.329
311.244
311.063
310.406
309.153
307.794
307.023
306.507
306.14
305.947
293.15
293.15
293.15
293.15
293.15
293.15
293.15
293.15
293.15
293.15
293.15
293.15
293.15
293.15
293.15
293.15
293.15
293.15
293.15
293.15
293.15
293.15
293.15
293.15
293.15
293.15
293.15
293.15
293.15
293.15
293.15
293.15
293.15
293.15
293.151
293.151
293.152
293.154
293.158
293.166
293.18
293.206
293.254
293.342
293.504
293.816
294.436
295.668
298.088
302.52
308.24
311.534
311.228
310.591
309.465
308.206
307.336
306.739
306.417
306.314
293.15
293.15
293.15
293.15
293.15
293.15
293.15
293.15
293.15
293.15
293.15
293.15
293.15
293.15
293.15
293.15
293.15
293.15
293.15
293.15
293.15
293.15
293.15
293.15
293.15
293.15
293.15
293.15
293.15
293.15
293.15
293.15
293.15
293.15
293.15
293.151
293.152
293.153
293.156
293.162
293.173
293.194
293.232
293.302
293.43
293.67
294.144
295.086
296.949
300.504
305.966
311.274
310.853
310.598
309.947
308.769
307.672
307.05
306.801
306.792
293.15
293.15
293.15
293.15
293.15
293.15
293.15
293.15
293.15
293.15
293.15
293.15
293.15
293.15
293.15
293.15
293.15
293.15
293.15
293.15
293.15
293.15
293.15
293.15
293.15
293.15
293.15
293.15
293.15
293.15
293.15
293.15
293.15
293.15
293.15
293.151
293.151
293.152
293.155
293.159
293.168
293.184
293.214
293.269
293.369
293.554
293.911
294.624
296.038
298.795
303.609
309.215
310.975
310.833
310.292
309.26
308.088
307.513
307.351
307.456
293.15
293.15
293.15
293.15
293.15
293.15
293.15
293.15
293.15
293.15
293.15
293.15
293.15
293.15
293.15
293.15
293.15
293.15
293.15
293.15
293.15
293.15
293.15
293.15
293.15
293.15
293.15
293.15
293.15
293.15
293.15
293.15
293.15
293.15
293.15
293.151
293.151
293.152
293.154
293.157
293.163
293.176
293.199
293.241
293.319
293.462
293.731
294.264
295.324
297.411
301.32
306.818
311.263
310.759
310.413
309.83
308.729
308.123
308.184
308.344
293.15
293.15
293.15
293.15
293.15
293.15
293.15
293.15
293.15
293.15
293.15
293.15
293.15
293.15
293.15
293.15
293.15
293.15
293.15
293.15
293.15
293.15
293.15
293.15
293.15
293.15
293.15
293.15
293.15
293.15
293.15
293.15
293.15
293.15
293.15
293.15
293.151
293.151
293.153
293.155
293.16
293.169
293.187
293.219
293.279
293.389
293.593
293.986
294.77
296.324
299.33
304.329
309.959
310.732
310.639
310.249
309.546
309.012
309.115
309.525
293.15
293.15
293.15
293.15
293.15
293.15
293.15
293.15
293.15
293.15
293.15
293.15
293.15
293.15
293.15
293.15
293.15
293.15
293.15
293.15
293.15
293.15
293.15
293.15
293.15
293.15
293.15
293.15
293.15
293.15
293.15
293.15
293.15
293.15
293.15
293.15
293.151
293.151
293.152
293.154
293.157
293.164
293.177
293.202
293.248
293.331
293.485
293.776
294.351
295.493
297.737
301.864
307.363
311.169
310.872
310.657
310.391
310.202
310.329
310.831
293.15
293.15
293.15
293.15
293.15
293.15
293.15
293.15
293.15
293.15
293.15
293.15
293.15
293.15
293.15
293.15
293.15
293.15
293.15
293.15
293.15
293.15
293.15
293.15
293.15
293.15
293.15
293.15
293.15
293.15
293.15
293.15
293.15
293.15
293.15
293.15
293.15
293.151
293.151
293.153
293.155
293.16
293.17
293.188
293.223
293.286
293.402
293.618
294.035
294.867
296.512
299.676
304.775
310.463
311.21
311.286
311.291
311.359
311.608
312.357
293.15
293.15
293.15
293.15
293.15
293.15
293.15
293.15
293.15
293.15
293.15
293.15
293.15
293.15
293.15
293.15
293.15
293.15
293.15
293.15
293.15
293.15
293.15
293.15
293.15
293.15
293.15
293.15
293.15
293.15
293.15
293.15
293.15
293.15
293.15
293.15
293.15
293.151
293.151
293.152
293.154
293.157
293.164
293.178
293.204
293.251
293.339
293.5
293.804
294.405
295.599
297.941
302.21
307.856
311.742
311.977