/*--------------------------------*- C++ -*----------------------------------*\
  =========                 |
  \\      /  F ield         | OpenFOAM: The Open Source CFD Toolbox
   \\    /   O peration     | Website:  https://openfoam.org
    \\  /    A nd           | Version:  9
     \\/     M anipulation  |
\*---------------------------------------------------------------------------*/
FoamFile
{
    format      ascii;
    class       volVectorField;
    location    "0.005";
    object      U;
}
// * * * * * * * * * * * * * * * * * * * * * * * * * * * * * * * * * * * * * //

dimensions      [0 1 -1 0 0 0 0];

internalField   nonuniform List<vector> 
36400
(
(165.65 -5.59054e-10 0)
(165.65 -1.43624e-09 0)
(165.65 -1.90718e-09 0)
(165.65 -2.08225e-09 0)
(165.65 -2.59586e-09 0)
(165.65 -3.44722e-09 0)
(165.65 -4.52209e-09 0)
(165.65 -5.90275e-09 0)
(165.65 -7.71193e-09 0)
(165.65 -1.01012e-08 0)
(165.65 -1.32584e-08 0)
(165.65 -1.7425e-08 0)
(165.65 -2.29291e-08 0)
(165.65 -3.02145e-08 0)
(165.65 -3.98804e-08 0)
(165.65 -5.2751e-08 0)
(165.65 -6.99667e-08 0)
(165.65 -9.31115e-08 0)
(165.65 -1.24392e-07 0)
(165.65 -1.66895e-07 0)
(165.65 -2.24923e-07 0)
(165.65 -3.04448e-07 0)
(165.65 -4.13724e-07 0)
(165.65 -5.64186e-07 0)
(165.65 -7.71843e-07 0)
(165.65 -1.05944e-06 0)
(165.65 -1.45974e-06 0)
(165.65 -2.02015e-06 0)
(165.65 -2.80935e-06 0)
(165.65 -3.92642e-06 0)
(165.65 -5.51436e-06 0)
(165.65 -7.78154e-06 0)
(165.65 -1.10426e-05 0)
(165.65 -1.5813e-05 0)
(165.65 -2.30481e-05 0)
(165.65 -3.47366e-05 0)
(165.65 -5.52116e-05 0)
(165.65 -9.36893e-05 0)
(165.649 -0.000168929 0)
(165.649 -0.000318237 0)
(165.648 -0.000615457 0)
(165.645 -0.00120622 0)
(165.641 -0.0023762 0)
(165.632 -0.0046803 0)
(165.615 -0.00917942 0)
(165.582 -0.0178578 0)
(165.518 -0.0343323 0)
(165.397 -0.0650612 0)
(165.172 -0.12163 0)
(164.752 -0.226431 0)
(163.942 -0.428556 0)
(162.321 -0.843498 0)
(159.063 -1.67848 0)
(152.553 -3.37135 0)
(140.302 -6.50748 0)
(122.881 -10.6889 0)
(110.335 -11.7048 0)
(111.45 -8.78757 0)
(115.75 -6.66969 0)
(124.299 -2.73859 0)
(165.65 -8.31012e-10 0)
(165.65 -2.26258e-09 0)
(165.65 -3.09585e-09 0)
(165.65 -3.30464e-09 0)
(165.65 -3.74329e-09 0)
(165.65 -4.90914e-09 0)
(165.65 -6.50872e-09 0)
(165.65 -8.55204e-09 0)
(165.65 -1.12151e-08 0)
(165.65 -1.47343e-08 0)
(165.65 -1.93979e-08 0)
(165.65 -2.55842e-08 0)
(165.65 -3.38088e-08 0)
(165.65 -4.47773e-08 0)
(165.65 -5.94609e-08 0)
(165.65 -7.92052e-08 0)
(165.65 -1.05889e-07 0)
(165.65 -1.42145e-07 0)
(165.65 -1.91685e-07 0)
(165.65 -2.59766e-07 0)
(165.65 -3.53821e-07 0)
(165.65 -4.8435e-07 0)
(165.65 -6.66166e-07 0)
(165.65 -9.20178e-07 0)
(165.65 -1.27608e-06 0)
(165.65 -1.77635e-06 0)
(165.65 -2.48223e-06 0)
(165.65 -3.48233e-06 0)
(165.65 -4.90489e-06 0)
(165.65 -6.93533e-06 0)
(165.65 -9.84253e-06 0)
(165.65 -1.40229e-05 0)
(165.65 -2.00888e-05 0)
(165.65 -2.90801e-05 0)
(165.65 -4.29962e-05 0)
(165.65 -6.60583e-05 0)
(165.65 -0.000107362 0)
(165.649 -0.000185869 0)
(165.649 -0.000339676 0)
(165.648 -0.000644211 0)
(165.647 -0.00124854 0)
(165.643 -0.00244598 0)
(165.637 -0.00480955 0)
(165.624 -0.00944464 0)
(165.6 -0.018444 0)
(165.552 -0.0356743 0)
(165.462 -0.0680976 0)
(165.293 -0.128067 0)
(164.979 -0.237939 0)
(164.385 -0.441823 0)
(163.214 -0.839099 0)
(160.861 -1.64267 0)
(156.138 -3.25223 0)
(146.865 -6.49232 0)
(131.045 -11.8987 0)
(114.08 -17.8026 0)
(105.577 -16.386 0)
(106.213 -11.9641 0)
(108.072 -8.23554 0)
(111.422 -5.69262 0)
(165.65 -5.72941e-10 0)
(165.65 -1.87554e-09 0)
(165.65 -3.00448e-09 0)
(165.65 -3.46689e-09 0)
(165.65 -3.88516e-09 0)
(165.65 -5.13123e-09 0)
(165.65 -6.88722e-09 0)
(165.65 -9.12777e-09 0)
(165.65 -1.20417e-08 0)
(165.65 -1.5895e-08 0)
(165.65 -2.10223e-08 0)
(165.65 -2.78676e-08 0)
(165.65 -3.70401e-08 0)
(165.65 -4.93838e-08 0)
(165.65 -6.6081e-08 0)
(165.65 -8.87869e-08 0)
(165.65 -1.1983e-07 0)
(165.65 -1.62511e-07 0)
(165.65 -2.21538e-07 0)
(165.65 -3.03642e-07 0)
(165.65 -4.1847e-07 0)
(165.65 -5.79842e-07 0)
(165.65 -8.07552e-07 0)
(165.65 -1.12996e-06 0)
(165.65 -1.58779e-06 0)
(165.65 -2.23974e-06 0)
(165.65 -3.17059e-06 0)
(165.65 -4.50311e-06 0)
(165.65 -6.41514e-06 0)
(165.65 -9.16454e-06 0)
(165.65 -1.31277e-05 0)
(165.65 -1.8868e-05 0)
(165.65 -2.72824e-05 0)
(165.65 -3.99618e-05 0)
(165.65 -6.00723e-05 0)
(165.65 -9.43209e-05 0)
(165.65 -0.000156871 0)
(165.649 -0.000276658 0)
(165.649 -0.000511321 0)
(165.648 -0.000974818 0)
(165.645 -0.0018919 0)
(165.641 -0.00370316 0)
(165.632 -0.00726345 0)
(165.615 -0.0142049 0)
(165.581 -0.0275762 0)
(165.517 -0.052928 0)
(165.397 -0.100155 0)
(165.174 -0.186895 0)
(164.758 -0.346207 0)
(163.961 -0.646343 0)
(162.371 -1.24348 0)
(159.181 -2.43898 0)
(152.779 -4.82282 0)
(141.184 -9.42923 0)
(124.372 -15.9515 0)
(112.122 -19.557 0)
(108.811 -16.5081 0)
(108.859 -12.5937 0)
(108.472 -9.50739 0)
(109.329 -6.91176 0)
(165.65 -4.85441e-10 0)
(165.65 -1.69007e-09 0)
(165.65 -2.88827e-09 0)
(165.65 -3.45801e-09 0)
(165.65 -4.0254e-09 0)
(165.65 -5.32413e-09 0)
(165.65 -7.16071e-09 0)
(165.65 -9.54716e-09 0)
(165.65 -1.26773e-08 0)
(165.65 -1.68415e-08 0)
(165.65 -2.24194e-08 0)
(165.65 -2.99228e-08 0)
(165.65 -4.00645e-08 0)
(165.65 -5.38457e-08 0)
(165.65 -7.2679e-08 0)
(165.65 -9.85663e-08 0)
(165.65 -1.34352e-07 0)
(165.65 -1.8411e-07 0)
(165.65 -2.53706e-07 0)
(165.65 -3.51608e-07 0)
(165.65 -4.90066e-07 0)
(165.65 -6.86806e-07 0)
(165.65 -9.67478e-07 0)
(165.65 -1.36918e-06 0)
(165.65 -1.94559e-06 0)
(165.65 -2.77444e-06 0)
(165.65 -3.96841e-06 0)
(165.65 -5.69095e-06 0)
(165.65 -8.17942e-06 0)
(165.65 -1.17793e-05 0)
(165.65 -1.69991e-05 0)
(165.65 -2.4613e-05 0)
(165.65 -3.58948e-05 0)
(165.65 -5.31963e-05 0)
(165.65 -8.13013e-05 0)
(165.65 -0.000130273 0)
(165.649 -0.000220944 0)
(165.649 -0.000395318 0)
(165.648 -0.000736806 0)
(165.647 -0.0014102 0)
(165.643 -0.00273948 0)
(165.637 -0.00535617 0)
(165.625 -0.0104745 0)
(165.601 -0.020384 0)
(165.555 -0.039298 0)
(165.468 -0.0747862 0)
(165.307 -0.140296 0)
(165.009 -0.260237 0)
(164.448 -0.482542 0)
(163.349 -0.912318 0)
(161.145 -1.7758 0)
(156.733 -3.50515 0)
(148.071 -6.97114 0)
(133.967 -12.8156 0)
(119.174 -19.75 0)
(112.778 -19.82 0)
(112.613 -17.2064 0)
(112.496 -14.1675 0)
(111.4 -11.167 0)
(111.123 -7.44367 0)
(165.65 -4.34089e-10 0)
(165.65 -1.54388e-09 0)
(165.65 -2.75079e-09 0)
(165.65 -3.36784e-09 0)
(165.65 -4.11455e-09 0)
(165.65 -5.49543e-09 0)
(165.65 -7.40414e-09 0)
(165.65 -9.92083e-09 0)
(165.65 -1.3258e-08 0)
(165.65 -1.77318e-08 0)
(165.65 -2.37684e-08 0)
(165.65 -3.19581e-08 0)
(165.65 -4.31278e-08 0)
(165.65 -5.84542e-08 0)
(165.65 -7.96099e-08 0)
(165.65 -1.08991e-07 0)
(165.65 -1.50037e-07 0)
(165.65 -2.0772e-07 0)
(165.65 -2.89254e-07 0)
(165.65 -4.05138e-07 0)
(165.65 -5.70675e-07 0)
(165.65 -8.0817e-07 0)
(165.65 -1.15012e-06 0)
(165.65 -1.64382e-06 0)
(165.65 -2.35811e-06 0)
(165.65 -3.39312e-06 0)
(165.65 -4.89451e-06 0)
(165.65 -7.07412e-06 0)
(165.65 -1.02404e-05 0)
(165.65 -1.48445e-05 0)
(165.65 -2.15568e-05 0)
(165.65 -3.14194e-05 0)
(165.65 -4.62093e-05 0)
(165.65 -6.93214e-05 0)
(165.65 -0.000107734 0)
(165.65 -0.000175947 0)
(165.649 -0.000303504 0)
(165.649 -0.000549508 0)
(165.648 -0.00103112 0)
(165.645 -0.00197934 0)
(165.641 -0.00384619 0)
(165.632 -0.00750602 0)
(165.615 -0.0146211 0)
(165.582 -0.0282807 0)
(165.519 -0.0540852 0)
(165.402 -0.102 0)
(165.185 -0.189833 0)
(164.782 -0.351072 0)
(164.012 -0.65494 0)
(162.48 -1.25954 0)
(159.407 -2.47378 0)
(153.246 -4.90239 0)
(142.118 -9.62678 0)
(126.526 -16.4203 0)
(116.251 -20.9722 0)
(114.944 -19.19 0)
(115.463 -17.5789 0)
(115.706 -15.283 0)
(115.063 -12.6114 0)
(114.908 -8.16262 0)
(165.65 -4.03235e-10 0)
(165.65 -1.44401e-09 0)
(165.65 -2.65012e-09 0)
(165.65 -3.30232e-09 0)
(165.65 -4.20456e-09 0)
(165.65 -5.67627e-09 0)
(165.65 -7.66718e-09 0)
(165.65 -1.03229e-08 0)
(165.65 -1.38838e-08 0)
(165.65 -1.86983e-08 0)
(165.65 -2.52513e-08 0)
(165.65 -3.42224e-08 0)
(165.65 -4.65753e-08 0)
(165.65 -6.36869e-08 0)
(165.65 -8.75378e-08 0)
(165.65 -1.2099e-07 0)
(165.65 -1.68192e-07 0)
(165.65 -2.35185e-07 0)
(165.65 -3.30797e-07 0)
(165.65 -4.67958e-07 0)
(165.65 -6.65621e-07 0)
(165.65 -9.5155e-07 0)
(165.65 -1.36637e-06 0)
(165.65 -1.9695e-06 0)
(165.65 -2.84778e-06 0)
(165.65 -4.1281e-06 0)
(165.65 -5.99568e-06 0)
(165.65 -8.72073e-06 0)
(165.65 -1.26979e-05 0)
(165.65 -1.85076e-05 0)
(165.65 -2.70217e-05 0)
(165.65 -3.963e-05 0)
(165.65 -5.87882e-05 0)
(165.65 -8.93083e-05 0)
(165.65 -0.000141085 0)
(165.649 -0.000234404 0)
(165.649 -0.000410156 0)
(165.648 -0.000749792 0)
(165.647 -0.00141445 0)
(165.643 -0.00272069 0)
(165.637 -0.00528416 0)
(165.625 -0.0102842 0)
(165.601 -0.0199336 0)
(165.556 -0.0382825 0)
(165.471 -0.0725777 0)
(165.313 -0.135684 0)
(165.023 -0.251036 0)
(164.477 -0.46491 0)
(163.41 -0.879064 0)
(161.27 -1.71352 0)
(156.985 -3.38789 0)
(148.561 -6.74907 0)
(134.885 -12.5399 0)
(120.976 -19.6808 0)
(115.88 -20.3058 0)
(116.769 -19.2949 0)
(117.376 -18.0175 0)
(118.18 -16.0629 0)
(118.595 -13.654 0)
(118.8 -9.723 0)
(165.65 -3.88335e-10 0)
(165.65 -1.38419e-09 0)
(165.65 -2.58909e-09 0)
(165.65 -3.27266e-09 0)
(165.65 -4.29979e-09 0)
(165.65 -5.86721e-09 0)
(165.65 -7.96019e-09 0)
(165.65 -1.07761e-08 0)
(165.65 -1.45889e-08 0)
(165.65 -1.97904e-08 0)
(165.65 -2.69355e-08 0)
(165.65 -3.6807e-08 0)
(165.65 -5.05288e-08 0)
(165.65 -6.97163e-08 0)
(165.65 -9.67143e-08 0)
(165.65 -1.34933e-07 0)
(165.65 -1.89358e-07 0)
(165.65 -2.67301e-07 0)
(165.65 -3.79511e-07 0)
(165.65 -5.41812e-07 0)
(165.65 -7.77495e-07 0)
(165.65 -1.12078e-06 0)
(165.65 -1.62192e-06 0)
(165.65 -2.35463e-06 0)
(165.65 -3.4271e-06 0)
(165.65 -4.99804e-06 0)
(165.65 -7.3e-06 0)
(165.65 -1.06733e-05 0)
(165.65 -1.56168e-05 0)
(165.65 -2.2868e-05 0)
(165.65 -3.35508e-05 0)
(165.65 -4.95061e-05 0)
(165.65 -7.4094e-05 0)
(165.65 -0.000114 0)
(165.65 -0.0001829 0)
(165.649 -0.000308528 0)
(165.649 -0.000546432 0)
(165.648 -0.00100694 0)
(165.645 -0.00190763 0)
(165.641 -0.00367386 0)
(165.632 -0.00712627 0)
(165.615 -0.013819 0)
(165.583 -0.026626 0)
(165.522 -0.0507323 0)
(165.408 -0.0953382 0)
(165.198 -0.176894 0)
(164.809 -0.326467 0)
(164.065 -0.608565 0)
(162.585 -1.17129 0)
(159.616 -2.30359 0)
(153.66 -4.57065 0)
(142.78 -9.04791 0)
(127.293 -15.631 0)
(117.565 -20.7453 0)
(116.868 -20.1129 0)
(117.622 -19.7233 0)
(119.189 -18.5966 0)
(120.68 -16.5937 0)
(121.501 -14.3889 0)
(121.894 -11.433 0)
(165.65 -3.80067e-10 0)
(165.65 -1.35478e-09 0)
(165.65 -2.56495e-09 0)
(165.65 -3.27968e-09 0)
(165.65 -4.41013e-09 0)
(165.65 -6.07678e-09 0)
(165.65 -8.29053e-09 0)
(165.65 -1.12886e-08 0)
(165.65 -1.53849e-08 0)
(165.65 -2.10259e-08 0)
(165.65 -2.88447e-08 0)
(165.65 -3.97464e-08 0)
(165.65 -5.50414e-08 0)
(165.65 -7.66263e-08 0)
(165.65 -1.0727e-07 0)
(165.65 -1.51027e-07 0)
(165.65 -2.13863e-07 0)
(165.65 -3.04586e-07 0)
(165.65 -4.36207e-07 0)
(165.65 -6.27961e-07 0)
(165.65 -9.08226e-07 0)
(165.65 -1.31881e-06 0)
(165.65 -1.92122e-06 0)
(165.65 -2.80599e-06 0)
(165.65 -4.10642e-06 0)
(165.65 -6.01882e-06 0)
(165.65 -8.83185e-06 0)
(165.65 -1.29694e-05 0)
(165.65 -1.9055e-05 0)
(165.65 -2.80166e-05 0)
(165.65 -4.12911e-05 0)
(165.65 -6.13017e-05 0)
(165.65 -9.259e-05 0)
(165.65 -0.000144257 0)
(165.649 -0.000234788 0)
(165.649 -0.000401405 0)
(165.648 -0.000718364 0)
(165.647 -0.0013327 0)
(165.644 -0.00253319 0)
(165.637 -0.00488071 0)
(165.626 -0.00944695 0)
(165.603 -0.0182353 0)
(165.559 -0.0348973 0)
(165.477 -0.0659423 0)
(165.327 -0.122909 0)
(165.049 -0.226831 0)
(164.529 -0.419381 0)
(163.512 -0.79251 0)
(161.473 -1.5455 0)
(157.389 -3.05892 0)
(149.285 -6.09406 0)
(135.905 -11.5699 0)
(121.49 -18.6718 0)
(115.897 -20.1469 0)
(117.13 -20.2026 0)
(118.54 -19.8357 0)
(120.907 -18.7247 0)
(122.987 -17.0044 0)
(123.854 -15.1394 0)
(124.302 -12.9604 0)
(165.65 -3.78125e-10 0)
(165.65 -1.35108e-09 0)
(165.65 -2.57412e-09 0)
(165.65 -3.32084e-09 0)
(165.65 -4.54015e-09 0)
(165.65 -6.30984e-09 0)
(165.65 -8.6615e-09 0)
(165.65 -1.18633e-08 0)
(165.65 -1.62777e-08 0)
(165.65 -2.2412e-08 0)
(165.65 -3.09895e-08 0)
(165.65 -4.3057e-08 0)
(165.65 -6.01382e-08 0)
(165.65 -8.44565e-08 0)
(165.65 -1.19272e-07 0)
(165.65 -1.69387e-07 0)
(165.65 -2.4191e-07 0)
(165.65 -3.47381e-07 0)
(165.65 -5.01444e-07 0)
(165.65 -7.27279e-07 0)
(165.65 -1.05917e-06 0)
(165.65 -1.54771e-06 0)
(165.65 -2.2675e-06 0)
(165.65 -3.3286e-06 0)
(165.65 -4.89361e-06 0)
(165.65 -7.20276e-06 0)
(165.65 -1.06106e-05 0)
(165.65 -1.56393e-05 0)
(165.65 -2.30597e-05 0)
(165.65 -3.40281e-05 0)
(165.65 -5.0369e-05 0)
(165.65 -7.52468e-05 0)
(165.65 -0.00011471 0)
(165.65 -0.000180903 0)
(165.649 -0.000298349 0)
(165.649 -0.000516198 0)
(165.648 -0.000932199 0)
(165.645 -0.00173921 0)
(165.641 -0.00331402 0)
(165.633 -0.00638255 0)
(165.617 -0.0123164 0)
(165.586 -0.0236447 0)
(165.528 -0.0449158 0)
(165.421 -0.0841801 0)
(165.224 -0.155814 0)
(164.859 -0.286961 0)
(164.163 -0.53397 0)
(162.778 -1.02695 0)
(159.998 -2.01916 0)
(154.425 -4.00925 0)
(143.931 -7.99309 0)
(128.361 -14.1556 0)
(117.527 -20.0438 0)
(116.033 -19.9737 0)
(117.049 -20.0262 0)
(119.362 -19.5663 0)
(122.406 -18.4047 0)
(124.771 -17.1921 0)
(125.678 -15.7829 0)
(126.085 -14.2665 0)
(165.65 -3.81697e-10 0)
(165.65 -1.36293e-09 0)
(165.65 -2.60485e-09 0)
(165.65 -3.38669e-09 0)
(165.65 -4.69221e-09 0)
(165.65 -6.56911e-09 0)
(165.65 -9.07081e-09 0)
(165.65 -1.25027e-08 0)
(165.65 -1.72719e-08 0)
(165.65 -2.39518e-08 0)
(165.65 -3.33717e-08 0)
(165.65 -4.67405e-08 0)
(165.65 -6.58223e-08 0)
(165.65 -9.32125e-08 0)
(165.65 -1.32734e-07 0)
(165.65 -1.90051e-07 0)
(165.65 -2.73578e-07 0)
(165.65 -3.95843e-07 0)
(165.65 -5.75489e-07 0)
(165.65 -8.40205e-07 0)
(165.65 -1.23102e-06 0)
(165.65 -1.80859e-06 0)
(165.65 -2.66253e-06 0)
(165.65 -3.92539e-06 0)
(165.65 -5.79352e-06 0)
(165.65 -8.55793e-06 0)
(165.65 -1.26493e-05 0)
(165.65 -1.87038e-05 0)
(165.65 -2.76639e-05 0)
(165.65 -4.09571e-05 0)
(165.65 -6.08829e-05 0)
(165.65 -9.15326e-05 0)
(165.65 -0.000140834 0)
(165.649 -0.000224698 0)
(165.649 -0.000375121 0)
(165.648 -0.00065602 0)
(165.647 -0.00119412 0)
(165.644 -0.00223835 0)
(165.638 -0.00427193 0)
(165.627 -0.00821701 0)
(165.606 -0.0157945 0)
(165.565 -0.0301351 0)
(165.49 -0.0568076 0)
(165.351 -0.105665 0)
(165.095 -0.194616 0)
(164.617 -0.359048 0)
(163.684 -0.676661 0)
(161.815 -1.31833 0)
(158.068 -2.60904 0)
(150.572 -5.1929 0)
(137.677 -10.1239 0)
(122.086 -16.8127 0)
(114.943 -19.5425 0)
(116.041 -19.8424 0)
(117.486 -19.7689 0)
(120.346 -19.0826 0)
(123.629 -17.9004 0)
(125.977 -17.0969 0)
(126.916 -16.2439 0)
(127.317 -15.2247 0)
(165.65 -3.87192e-10 0)
(165.65 -1.38396e-09 0)
(165.65 -2.65001e-09 0)
(165.65 -3.46983e-09 0)
(165.65 -4.86432e-09 0)
(165.65 -6.85283e-09 0)
(165.65 -9.51817e-09 0)
(165.65 -1.32024e-08 0)
(165.65 -1.83598e-08 0)
(165.65 -2.56378e-08 0)
(165.65 -3.59834e-08 0)
(165.65 -5.07828e-08 0)
(165.65 -7.20714e-08 0)
(165.65 -1.02861e-07 0)
(165.65 -1.47613e-07 0)
(165.65 -2.12964e-07 0)
(165.65 -3.08807e-07 0)
(165.65 -4.49903e-07 0)
(165.65 -6.58267e-07 0)
(165.65 -9.66657e-07 0)
(165.65 -1.42369e-06 0)
(165.65 -2.10138e-06 0)
(165.65 -3.10637e-06 0)
(165.65 -4.59676e-06 0)
(165.65 -6.80737e-06 0)
(165.65 -1.00871e-05 0)
(165.65 -1.49532e-05 0)
(165.65 -2.21718e-05 0)
(165.65 -3.28826e-05 0)
(165.65 -4.88312e-05 0)
(165.65 -7.28923e-05 0)
(165.65 -0.000110294 0)
(165.65 -0.000171259 0)
(165.649 -0.000276289 0)
(165.649 -0.000466484 0)
(165.648 -0.000823728 0)
(165.646 -0.00150978 0)
(165.642 -0.0028408 0)
(165.634 -0.00542569 0)
(165.62 -0.0104141 0)
(165.592 -0.0199241 0)
(165.539 -0.0377609 0)
(165.442 -0.0706495 0)
(165.263 -0.130565 0)
(164.934 -0.239975 0)
(164.308 -0.445232 0)
(163.066 -0.853483 0)
(160.572 -1.67568 0)
(155.576 -3.32859 0)
(145.839 -6.64936 0)
(130.619 -12.2638 0)
(117.631 -18.6889 0)
(114.268 -19.0535 0)
(115.605 -19.3321 0)
(117.932 -19.2096 0)
(121.463 -18.3787 0)
(124.668 -17.4393 0)
(126.657 -16.87 0)
(127.658 -16.4326 0)
(128.219 -15.7984 0)
(165.65 -3.95479e-10 0)
(165.65 -1.41418e-09 0)
(165.65 -2.70785e-09 0)
(165.65 -3.56808e-09 0)
(165.65 -5.05184e-09 0)
(165.65 -7.15698e-09 0)
(165.65 -9.99828e-09 0)
(165.65 -1.39537e-08 0)
(165.65 -1.95302e-08 0)
(165.65 -2.74551e-08 0)
(165.65 -3.88025e-08 0)
(165.65 -5.51511e-08 0)
(165.65 -7.88351e-08 0)
(165.65 -1.13328e-07 0)
(165.65 -1.63801e-07 0)
(165.65 -2.37973e-07 0)
(165.65 -3.47375e-07 0)
(165.65 -5.0924e-07 0)
(165.65 -7.49311e-07 0)
(165.65 -1.10595e-06 0)
(165.65 -1.63619e-06 0)
(165.65 -2.42468e-06 0)
(165.65 -3.59709e-06 0)
(165.65 -5.3402e-06 0)
(165.65 -7.93202e-06 0)
(165.65 -1.17863e-05 0)
(165.65 -1.75174e-05 0)
(165.65 -2.60369e-05 0)
(165.65 -3.87075e-05 0)
(165.65 -5.76441e-05 0)
(165.65 -8.64064e-05 0)
(165.65 -0.000131588 0)
(165.649 -0.000206169 0)
(165.649 -0.000336148 0)
(165.648 -0.000573537 0)
(165.647 -0.00102166 0)
(165.645 -0.00188382 0)
(165.639 -0.00355489 0)
(165.63 -0.00678867 0)
(165.611 -0.012992 0)
(165.575 -0.024724 0)
(165.507 -0.046536 0)
(165.384 -0.0864638 0)
(165.157 -0.159025 0)
(164.735 -0.29263 0)
(163.917 -0.548623 0)
(162.277 -1.06608 0)
(158.989 -2.10664 0)
(152.395 -4.19188 0)
(140.351 -8.33389 0)
(123.86 -14.3627 0)
(114.431 -18.7804 0)
(114.442 -18.9062 0)
(115.616 -18.9285 0)
(118.542 -18.4203 0)
(122.389 -17.5225 0)
(125.349 -16.9887 0)
(127.12 -16.6053 0)
(128.078 -16.3458 0)
(128.793 -16.0534 0)
(165.65 -4.05065e-10 0)
(165.65 -1.45004e-09 0)
(165.65 -2.77373e-09 0)
(165.65 -3.67609e-09 0)
(165.65 -5.25118e-09 0)
(165.65 -7.47749e-09 0)
(165.65 -1.05011e-08 0)
(165.65 -1.47433e-08 0)
(165.65 -2.07654e-08 0)
(165.65 -2.93795e-08 0)
(165.65 -4.17913e-08 0)
(165.65 -5.9789e-08 0)
(165.65 -8.60347e-08 0)
(165.65 -1.24502e-07 0)
(165.65 -1.81132e-07 0)
(165.65 -2.64821e-07 0)
(165.65 -3.88886e-07 0)
(165.65 -5.73253e-07 0)
(165.65 -8.47716e-07 0)
(165.65 -1.25673e-06 0)
(165.65 -1.86651e-06 0)
(165.65 -2.77558e-06 0)
(165.65 -4.13054e-06 0)
(165.65 -6.14984e-06 0)
(165.65 -9.1592e-06 0)
(165.65 -1.36439e-05 0)
(165.65 -2.03251e-05 0)
(165.65 -3.02744e-05 0)
(165.65 -4.51028e-05 0)
(165.65 -6.73482e-05 0)
(165.65 -0.000101373 0)
(165.65 -0.000155381 0)
(165.649 -0.000245599 0)
(165.649 -0.000404507 0)
(165.648 -0.000696949 0)
(165.646 -0.00125134 0)
(165.643 -0.00231913 0)
(165.636 -0.00438526 0)
(165.624 -0.00836632 0)
(165.599 -0.0159526 0)
(165.553 -0.0301839 0)
(165.469 -0.0564292 0)
(165.313 -0.104214 0)
(165.028 -0.191192 0)
(164.489 -0.353333 0)
(163.425 -0.672873 0)
(161.287 -1.31764 0)
(157.004 -2.61556 0)
(148.467 -5.21522 0)
(134.195 -10.0709 0)
(118.661 -16.3155 0)
(112.593 -17.9252 0)
(114.086 -18.3864 0)
(116.092 -18.3888 0)
(119.487 -17.6484 0)
(123.107 -16.7748 0)
(125.718 -16.4425 0)
(127.383 -16.2687 0)
(128.311 -16.1327 0)
(129.103 -16.0415 0)
(165.65 -4.13944e-10 0)
(165.65 -1.48525e-09 0)
(165.65 -2.84056e-09 0)
(165.65 -3.78603e-09 0)
(165.65 -5.4584e-09 0)
(165.65 -7.80737e-09 0)
(165.65 -1.10184e-08 0)
(165.65 -1.55559e-08 0)
(165.65 -2.20412e-08 0)
(165.65 -3.13758e-08 0)
(165.65 -4.49011e-08 0)
(165.65 -6.46286e-08 0)
(165.65 -9.3568e-08 0)
(165.65 -1.36226e-07 0)
(165.65 -1.99368e-07 0)
(165.65 -2.93142e-07 0)
(165.65 -4.3277e-07 0)
(165.65 -6.41056e-07 0)
(165.65 -9.5212e-07 0)
(165.65 -1.41694e-06 0)
(165.65 -2.1116e-06 0)
(165.65 -3.14956e-06 0)
(165.65 -4.70012e-06 0)
(165.65 -7.0161e-06 0)
(165.65 -1.04749e-05 0)
(165.65 -1.56393e-05 0)
(165.65 -2.33456e-05 0)
(165.65 -3.48382e-05 0)
(165.65 -5.2001e-05 0)
(165.65 -7.78487e-05 0)
(165.65 -0.000117667 0)
(165.65 -0.000181525 0)
(165.649 -0.000289405 0)
(165.649 -0.000481283 0)
(165.647 -0.0008368 0)
(165.645 -0.0015131 0)
(165.641 -0.00281619 0)
(165.633 -0.00533147 0)
(165.616 -0.0101538 0)
(165.586 -0.0192787 0)
(165.528 -0.0362602 0)
(165.423 -0.0673612 0)
(165.23 -0.123809 0)
(164.872 -0.227182 0)
(164.185 -0.422975 0)
(162.814 -0.817551 0)
(160.06 -1.61056 0)
(154.543 -3.2045 0)
(143.872 -6.40665 0)
(127.621 -11.7112 0)
(114.957 -17.3555 0)
(112.281 -17.4464 0)
(113.642 -17.6544 0)
(116.475 -17.5098 0)
(120.386 -16.8348 0)
(123.768 -16.1498 0)
(125.933 -15.8742 0)
(127.465 -15.8394 0)
(128.4 -15.8244 0)
(129.236 -15.8589 0)
(165.65 -4.2323e-10 0)
(165.65 -1.51918e-09 0)
(165.65 -2.90444e-09 0)
(165.65 -3.893e-09 0)
(165.65 -5.66275e-09 0)
(165.65 -8.13251e-09 0)
(165.65 -1.15334e-08 0)
(165.65 -1.63716e-08 0)
(165.65 -2.33278e-08 0)
(165.65 -3.33981e-08 0)
(165.65 -4.80689e-08 0)
(165.65 -6.95818e-08 0)
(165.65 -1.01304e-07 0)
(165.65 -1.48301e-07 0)
(165.65 -2.18195e-07 0)
(165.65 -3.2245e-07 0)
(165.65 -4.78273e-07 0)
(165.65 -7.11472e-07 0)
(165.65 -1.06071e-06 0)
(165.65 -1.58382e-06 0)
(165.65 -2.3673e-06 0)
(165.65 -3.54047e-06 0)
(165.65 -5.29674e-06 0)
(165.65 -7.92545e-06 0)
(165.65 -1.1859e-05 0)
(165.65 -1.77421e-05 0)
(165.65 -2.65329e-05 0)
(165.65 -3.96592e-05 0)
(165.65 -5.92997e-05 0)
(165.65 -8.89987e-05 0)
(165.65 -0.000135086 0)
(165.649 -0.000209746 0)
(165.649 -0.000337227 0)
(165.648 -0.000566005 0)
(165.647 -0.000992419 0)
(165.644 -0.00180577 0)
(165.639 -0.00337235 0)
(165.628 -0.00638669 0)
(165.608 -0.0121337 0)
(165.569 -0.0229306 0)
(165.499 -0.0428742 0)
(165.369 -0.0792027 0)
(165.131 -0.145121 0)
(164.686 -0.267011 0)
(163.815 -0.503354 0)
(162.067 -0.98158 0)
(158.562 -1.94349 0)
(151.534 -3.87127 0)
(138.732 -7.70287 0)
(121.629 -13.2269 0)
(112.215 -17.0176 0)
(112.451 -17.1645 0)
(113.792 -17.1041 0)
(116.986 -16.5406 0)
(121.059 -15.8741 0)
(124.208 -15.5125 0)
(126.081 -15.323 0)
(127.431 -15.3449 0)
(128.361 -15.4304 0)
(129.228 -15.5665 0)
(165.65 -4.30549e-10 0)
(165.65 -1.55307e-09 0)
(165.65 -2.96885e-09 0)
(165.65 -4.00535e-09 0)
(165.65 -5.85619e-09 0)
(165.65 -8.43913e-09 0)
(165.65 -1.20269e-08 0)
(165.65 -1.71645e-08 0)
(165.65 -2.45908e-08 0)
(165.65 -3.53978e-08 0)
(165.65 -5.12234e-08 0)
(165.65 -7.45414e-08 0)
(165.65 -1.09083e-07 0)
(165.65 -1.60483e-07 0)
(165.65 -2.3724e-07 0)
(165.65 -3.52154e-07 0)
(165.65 -5.24462e-07 0)
(165.65 -7.8305e-07 0)
(165.65 -1.17124e-06 0)
(165.65 -1.75395e-06 0)
(165.65 -2.62846e-06 0)
(165.65 -3.94054e-06 0)
(165.65 -5.90869e-06 0)
(165.65 -8.86028e-06 0)
(165.65 -1.32848e-05 0)
(165.65 -1.99118e-05 0)
(165.65 -2.98254e-05 0)
(165.65 -4.46443e-05 0)
(165.65 -6.68607e-05 0)
(165.65 -0.000100597 0)
(165.65 -0.000153341 0)
(165.649 -0.000239632 0)
(165.649 -0.000388464 0)
(165.648 -0.000657747 0)
(165.646 -0.00116223 0)
(165.643 -0.00212631 0)
(165.636 -0.00398114 0)
(165.623 -0.00753658 0)
(165.597 -0.0142751 0)
(165.551 -0.0268455 0)
(165.464 -0.0499126 0)
(165.306 -0.0917731 0)
(165.015 -0.167973 0)
(164.463 -0.310612 0)
(163.368 -0.594167 0)
(161.17 -1.1651 0)
(156.762 -2.31474 0)
(147.968 -4.61705 0)
(133.156 -8.96863 0)
(116.97 -14.5196 0)
(110.594 -16.0715 0)
(112.152 -16.489 0)
(114.31 -16.4621 0)
(117.835 -15.7095 0)
(121.567 -14.987 0)
(124.402 -14.8088 0)
(126.134 -14.7619 0)
(127.334 -14.8214 0)
(128.223 -14.967 0)
(129.113 -15.1841 0)
(165.65 -4.38596e-10 0)
(165.65 -1.58632e-09 0)
(165.65 -3.03759e-09 0)
(165.65 -4.14203e-09 0)
(165.65 -6.01992e-09 0)
(165.65 -8.70682e-09 0)
(165.65 -1.24798e-08 0)
(165.65 -1.79105e-08 0)
(165.65 -2.57953e-08 0)
(165.65 -3.73242e-08 0)
(165.65 -5.42863e-08 0)
(165.65 -7.9387e-08 0)
(165.65 -1.16724e-07 0)
(165.65 -1.72495e-07 0)
(165.65 -2.5607e-07 0)
(165.65 -3.81574e-07 0)
(165.65 -5.70269e-07 0)
(165.65 -8.54117e-07 0)
(165.65 -1.28112e-06 0)
(165.65 -1.92336e-06 0)
(165.65 -2.88903e-06 0)
(165.65 -4.34061e-06 0)
(165.65 -6.5221e-06 0)
(165.65 -9.79944e-06 0)
(165.65 -1.472e-05 0)
(165.65 -2.20989e-05 0)
(165.65 -3.31475e-05 0)
(165.65 -4.96791e-05 0)
(165.65 -7.45131e-05 0)
(165.65 -0.000112392 0)
(165.649 -0.00017206 0)
(165.649 -0.000270626 0)
(165.649 -0.000442249 0)
(165.647 -0.000755057 0)
(165.645 -0.00134358 0)
(165.641 -0.00246951 0)
(165.632 -0.00463178 0)
(165.616 -0.00875861 0)
(165.586 -0.0165325 0)
(165.529 -0.0309375 0)
(165.424 -0.0572273 0)
(165.234 -0.104846 0)
(164.881 -0.192099 0)
(164.2 -0.357815 0)
(162.838 -0.692683 0)
(160.103 -1.36542 0)
(154.625 -2.71878 0)
(143.927 -5.43614 0)
(127.374 -10.0955 0)
(113.578 -15.2331 0)
(110.16 -15.3455 0)
(111.738 -15.5792 0)
(114.703 -15.5461 0)
(118.68 -14.9234 0)
(122.092 -14.2458 0)
(124.47 -14.0924 0)
(126.076 -14.1602 0)
(127.188 -14.2737 0)
(128.025 -14.4509 0)
(128.904 -14.7312 0)
(165.65 -4.48462e-10 0)
(165.65 -1.61497e-09 0)
(165.65 -3.09518e-09 0)
(165.65 -4.27197e-09 0)
(165.65 -6.16018e-09 0)
(165.65 -8.93641e-09 0)
(165.65 -1.28829e-08 0)
(165.65 -1.85886e-08 0)
(165.65 -2.69076e-08 0)
(165.65 -3.91227e-08 0)
(165.65 -5.7172e-08 0)
(165.65 -8.39867e-08 0)
(165.65 -1.2402e-07 0)
(165.65 -1.8402e-07 0)
(165.65 -2.7419e-07 0)
(165.65 -4.09938e-07 0)
(165.65 -6.14486e-07 0)
(165.65 -9.22794e-07 0)
(165.65 -1.38746e-06 0)
(165.65 -2.08759e-06 0)
(165.65 -3.1422e-06 0)
(165.65 -4.73029e-06 0)
(165.65 -7.12107e-06 0)
(165.65 -1.07186e-05 0)
(165.65 -1.61271e-05 0)
(165.65 -2.42461e-05 0)
(165.65 -3.64116e-05 0)
(165.65 -5.46311e-05 0)
(165.65 -8.20589e-05 0)
(165.65 -0.000124089 0)
(165.649 -0.0001908 0)
(165.649 -0.000302034 0)
(165.648 -0.000497436 0)
(165.647 -0.000855914 0)
(165.644 -0.00153268 0)
(165.639 -0.00282782 0)
(165.629 -0.00530892 0)
(165.609 -0.010022 0)
(165.572 -0.0188469 0)
(165.504 -0.0350996 0)
(165.38 -0.0646374 0)
(165.152 -0.118158 0)
(164.726 -0.217098 0)
(163.892 -0.408947 0)
(162.217 -0.797286 0)
(158.857 -1.57811 0)
(152.12 -3.14525 0)
(139.526 -6.28762 0)
(121.91 -11.0575 0)
(111.067 -14.9822 0)
(110.383 -14.9192 0)
(111.692 -14.8606 0)
(115.04 -14.4759 0)
(119.338 -13.992 0)
(122.522 -13.559 0)
(124.506 -13.4093 0)
(125.936 -13.5229 0)
(126.994 -13.694 0)
(127.78 -13.8956 0)
(128.622 -14.2249 0)
(165.65 -4.53403e-10 0)
(165.65 -1.6347e-09 0)
(165.65 -3.12875e-09 0)
(165.65 -4.35627e-09 0)
(165.65 -6.28811e-09 0)
(165.65 -9.13914e-09 0)
(165.65 -1.32312e-08 0)
(165.65 -1.91774e-08 0)
(165.65 -2.78894e-08 0)
(165.65 -4.0734e-08 0)
(165.65 -5.97881e-08 0)
(165.65 -8.81993e-08 0)
(165.65 -1.30755e-07 0)
(165.65 -1.94714e-07 0)
(165.65 -2.91057e-07 0)
(165.65 -4.36392e-07 0)
(165.65 -6.55779e-07 0)
(165.65 -9.87007e-07 0)
(165.65 -1.48704e-06 0)
(165.65 -2.24171e-06 0)
(165.65 -3.38038e-06 0)
(165.65 -5.09794e-06 0)
(165.65 -7.68774e-06 0)
(165.65 -1.15902e-05 0)
(165.65 -1.74639e-05 0)
(165.65 -2.62883e-05 0)
(165.65 -3.95187e-05 0)
(165.65 -5.93504e-05 0)
(165.65 -8.92732e-05 0)
(165.65 -0.00013535 0)
(165.649 -0.000209045 0)
(165.649 -0.000333034 0)
(165.648 -0.000552617 0)
(165.646 -0.000957737 0)
(165.643 -0.00172453 0)
(165.636 -0.00319138 0)
(165.624 -0.00599311 0)
(165.601 -0.0112895 0)
(165.557 -0.0211492 0)
(165.476 -0.0392104 0)
(165.329 -0.0719373 0)
(165.06 -0.131401 0)
(164.549 -0.242477 0)
(163.536 -0.462606 0)
(161.503 -0.905956 0)
(157.423 -1.79856 0)
(149.252 -3.58607 0)
(134.865 -7.0908 0)
(117.415 -11.8264 0)
(109.255 -14.0943 0)
(110.367 -14.3531 0)
(112.169 -14.2265 0)
(115.644 -13.5028 0)
(119.738 -13.0269 0)
(122.763 -12.8381 0)
(124.518 -12.7513 0)
(125.761 -12.8695 0)
(126.755 -13.0801 0)
(127.496 -13.3046 0)
(128.29 -13.6583 0)
(165.65 -4.53771e-10 0)
(165.65 -1.64469e-09 0)
(165.65 -3.14174e-09 0)
(165.65 -4.40625e-09 0)
(165.65 -6.38321e-09 0)
(165.65 -9.29674e-09 0)
(165.65 -1.35068e-08 0)
(165.65 -1.96552e-08 0)
(165.65 -2.8702e-08 0)
(165.65 -4.20975e-08 0)
(165.65 -6.20423e-08 0)
(165.65 -9.18826e-08 0)
(165.65 -1.36702e-07 0)
(165.65 -2.04213e-07 0)
(165.65 -3.06098e-07 0)
(165.65 -4.60033e-07 0)
(165.65 -6.92735e-07 0)
(165.65 -1.04456e-06 0)
(165.65 -1.57647e-06 0)
(165.65 -2.38049e-06 0)
(165.65 -3.59553e-06 0)
(165.65 -5.43113e-06 0)
(165.65 -8.20287e-06 0)
(165.65 -1.23846e-05 0)
(165.65 -1.86844e-05 0)
(165.65 -2.81549e-05 0)
(165.65 -4.23606e-05 0)
(165.65 -6.36734e-05 0)
(165.65 -9.59098e-05 0)
(165.649 -0.000145803 0)
(165.649 -0.000226216 0)
(165.649 -0.000362673 0)
(165.648 -0.000606126 0)
(165.645 -0.00105743 0)
(165.642 -0.00191318 0)
(165.634 -0.00354854 0)
(165.619 -0.00666179 0)
(165.592 -0.0125184 0)
(165.54 -0.0233619 0)
(165.446 -0.0431348 0)
(165.274 -0.0789002 0)
(164.957 -0.14421 0)
(164.348 -0.267619 0)
(163.133 -0.516025 0)
(160.692 -1.01504 0)
(155.799 -2.01995 0)
(146.075 -4.03254 0)
(130.079 -7.76888 0)
(113.936 -12.3093 0)
(108.312 -13.1343 0)
(110.091 -13.4759 0)
(112.674 -13.422 0)
(116.399 -12.7213 0)
(120.099 -12.1527 0)
(122.842 -12.0794 0)
(124.477 -12.0882 0)
(125.571 -12.2095 0)
(126.49 -12.4363 0)
(127.196 -12.6817 0)
(127.933 -13.0405 0)
(165.65 -4.51565e-10 0)
(165.65 -1.64375e-09 0)
(165.65 -3.13234e-09 0)
(165.65 -4.42367e-09 0)
(165.65 -6.43741e-09 0)
(165.65 -9.3953e-09 0)
(165.65 -1.36926e-08 0)
(165.65 -1.99979e-08 0)
(165.65 -2.93135e-08 0)
(165.65 -4.31606e-08 0)
(165.65 -6.38493e-08 0)
(165.65 -9.4894e-08 0)
(165.65 -1.41627e-07 0)
(165.65 -2.12146e-07 0)
(165.65 -3.18721e-07 0)
(165.65 -4.79933e-07 0)
(165.65 -7.23915e-07 0)
(165.65 -1.09324e-06 0)
(165.65 -1.65233e-06 0)
(165.65 -2.49862e-06 0)
(165.65 -3.77941e-06 0)
(165.65 -5.71708e-06 0)
(165.65 -8.64663e-06 0)
(165.65 -1.30709e-05 0)
(165.65 -1.97411e-05 0)
(165.65 -2.97727e-05 0)
(165.65 -4.48256e-05 0)
(165.65 -6.74307e-05 0)
(165.65 -0.000101713 0)
(165.649 -0.000155054 0)
(165.649 -0.000241681 0)
(165.648 -0.000389881 0)
(165.647 -0.000656039 0)
(165.645 -0.0011514 0)
(165.64 -0.00209168 0)
(165.631 -0.00388589 0)
(165.614 -0.00728936 0)
(165.582 -0.0136611 0)
(165.522 -0.0253993 0)
(165.413 -0.0467244 0)
(165.214 -0.0852794 0)
(164.844 -0.15616 0)
(164.124 -0.291922 0)
(162.682 -0.567123 0)
(159.786 -1.12 0)
(153.983 -2.2327 0)
(142.676 -4.4667 0)
(125.365 -8.28021 0)
(111.353 -12.3701 0)
(108.094 -12.3176 0)
(109.779 -12.5013 0)
(113.05 -12.4912 0)
(117.113 -11.9369 0)
(120.477 -11.3813 0)
(122.842 -11.3175 0)
(124.376 -11.4027 0)
(125.373 -11.5405 0)
(126.209 -11.7686 0)
(126.882 -12.0295 0)
(127.574 -12.3886 0)
(165.65 -4.46584e-10 0)
(165.65 -1.63039e-09 0)
(165.65 -3.0988e-09 0)
(165.65 -4.40424e-09 0)
(165.65 -6.44324e-09 0)
(165.65 -9.42439e-09 0)
(165.65 -1.37728e-08 0)
(165.65 -2.01819e-08 0)
(165.65 -2.96901e-08 0)
(165.65 -4.38718e-08 0)
(165.65 -6.51233e-08 0)